 Entering Gaussian System, Link 0=g16
 Initial command:
 /home1/apps/gaussian/16rA.03/g16/l1.exe "/tmp/Gau-46787.inp" -scrdir="/tmp/"
 Entering Link 1 = /home1/apps/gaussian/16rA.03/g16/l1.exe PID=     46788.
  
 Copyright (c) 1988,1990,1992,1993,1995,1998,2003,2009,2016,
            Gaussian, Inc.  All Rights Reserved.
  
 This is part of the Gaussian(R) 16 program.  It is based on
 the Gaussian(R) 09 system (copyright 2009, Gaussian, Inc.),
 the Gaussian(R) 03 system (copyright 2003, Gaussian, Inc.),
 the Gaussian(R) 98 system (copyright 1998, Gaussian, Inc.),
 the Gaussian(R) 94 system (copyright 1995, Gaussian, Inc.),
 the Gaussian 92(TM) system (copyright 1992, Gaussian, Inc.),
 the Gaussian 90(TM) system (copyright 1990, Gaussian, Inc.),
 the Gaussian 88(TM) system (copyright 1988, Gaussian, Inc.),
 the Gaussian 86(TM) system (copyright 1986, Carnegie Mellon
 University), and the Gaussian 82(TM) system (copyright 1983,
 Carnegie Mellon University). Gaussian is a federally registered
 trademark of Gaussian, Inc.
  
 This software contains proprietary and confidential information,
 including trade secrets, belonging to Gaussian, Inc.
  
 This software is provided under written license and may be
 used, copied, transmitted, or stored only in accord with that
 written license.
  
 The following legend is applicable only to US Government
 contracts under FAR:
  
                    RESTRICTED RIGHTS LEGEND
  
 Use, reproduction and disclosure by the US Government is
 subject to restrictions as set forth in subparagraphs (a)
 and (c) of the Commercial Computer Software - Restricted
 Rights clause in FAR 52.227-19.
  
 Gaussian, Inc.
 340 Quinnipiac St., Bldg. 40, Wallingford CT 06492
  
  
 ---------------------------------------------------------------
 Warning -- This program may not be used in any manner that
 competes with the business of Gaussian, Inc. or will provide
 assistance to any competitor of Gaussian, Inc.  The licensee
 of this program is prohibited from giving any competitor of
 Gaussian, Inc. access to this program.  By using this program,
 the user acknowledges that Gaussian, Inc. is engaged in the
 business of creating and licensing software in the field of
 computational chemistry and represents and warrants to the
 licensee that it is not a competitor of Gaussian, Inc. and that
 it will not use this program in any manner prohibited above.
 ---------------------------------------------------------------
  

 Cite this work as:
 Gaussian 16, Revision A.03,
 M. J. Frisch, G. W. Trucks, H. B. Schlegel, G. E. Scuseria, 
 M. A. Robb, J. R. Cheeseman, G. Scalmani, V. Barone, 
 G. A. Petersson, H. Nakatsuji, X. Li, M. Caricato, A. V. Marenich, 
 J. Bloino, B. G. Janesko, R. Gomperts, B. Mennucci, H. P. Hratchian, 
 J. V. Ortiz, A. F. Izmaylov, J. L. Sonnenberg, D. Williams-Young, 
 F. Ding, F. Lipparini, F. Egidi, J. Goings, B. Peng, A. Petrone, 
 T. Henderson, D. Ranasinghe, V. G. Zakrzewski, J. Gao, N. Rega, 
 G. Zheng, W. Liang, M. Hada, M. Ehara, K. Toyota, R. Fukuda, 
 J. Hasegawa, M. Ishida, T. Nakajima, Y. Honda, O. Kitao, H. Nakai, 
 T. Vreven, K. Throssell, J. A. Montgomery, Jr., J. E. Peralta, 
 F. Ogliaro, M. J. Bearpark, J. J. Heyd, E. N. Brothers, K. N. Kudin, 
 V. N. Staroverov, T. A. Keith, R. Kobayashi, J. Normand, 
 K. Raghavachari, A. P. Rendell, J. C. Burant, S. S. Iyengar, 
 J. Tomasi, M. Cossi, J. M. Millam, M. Klene, C. Adamo, R. Cammi, 
 J. W. Ochterski, R. L. Martin, K. Morokuma, O. Farkas, 
 J. B. Foresman, and D. J. Fox, Gaussian, Inc., Wallingford CT, 2016.
 
 ******************************************
 Gaussian 16:  ES64L-G16RevA.03 25-Dec-2016
                 2-Apr-2021 
 ******************************************
 %chk=PRLD.scan4.neg.chk
 %nproc=1
 Will use up to    1 processors via shared memory.
 %mem=1GB
 -----------------------------------------------------
 # opt=modredundant MP2/6-31g(d) Geom=PrintInputOrient
 -----------------------------------------------------
 1/18=120,19=15,38=1/1,3;
 2/9=2110,12=2,17=6,18=5,40=1/2;
 3/5=1,6=6,7=1,11=9,25=1,30=1,71=1/1,2,3;
 4//1;
 5/5=2,38=5/2;
 8/6=4,10=2/1;
 9/15=2,16=-3/6;
 10/5=1/2;
 6/7=2,8=2,9=2,10=2/1;
 7/12=2/1,2,3,16;
 1/18=20,19=15/3(2);
 2/9=2110/2;
 99//99;
 2/9=2110/2;
 3/5=1,6=6,7=1,11=9,25=1,30=1,71=1/1,2,3;
 4/5=5,16=3,69=1/1;
 5/5=2,38=5/2;
 8/6=4,10=2/1;
 9/15=2,16=-3/6;
 10/5=1/2;
 7/12=2/1,2,3,16;
 1/18=20,19=15/3(-8);
 2/9=2110/2;
 6/7=2,8=2,9=2,10=2/1;
 99//99;
 ---------------------------
 PRLD Dihedral/Improper Scan
 ---------------------------
 Symbolic Z-matrix:
 Charge =  0 Multiplicity = 1
 N1                    0.844     0.456     0.923 
 H2                    1.372     0.495     1.798 
 C3                    1.643     1.125    -0.113 
 H4                    2.        2.097     0.243 
 H5                    0.987     1.307    -0.971 
 C6                    2.779     0.153    -0.504 
 H7                    3.689     0.384     0.059 
 H8                    3.031     0.222    -1.566 
 C9                    2.231    -1.24     -0.112 
 H10                   2.866    -1.707     0.647 
 H11                   2.185    -1.928    -0.962 
 C12                   0.83     -0.941     0.469 
 H13                   0.542    -1.609     1.286 
 H14                   0.068    -1.027    -0.314 
 
 The following ModRedundant input section has been read:
 D       1       3       6       9 S   6 -15.00                                
 

 GradGradGradGradGradGradGradGradGradGradGradGradGradGradGradGradGradGrad
 Berny optimization.
 Initialization pass.
                           ----------------------------
                           !    Initial Parameters    !
                           ! (Angstroms and Degrees)  !
 --------------------------                            --------------------------
 ! Name  Definition              Value          Derivative Info.                !
 --------------------------------------------------------------------------------
 ! R1    R(1,2)                  1.0227         estimate D2E/DX2                !
 ! R2    R(1,3)                  1.4694         estimate D2E/DX2                !
 ! R3    R(1,12)                 1.469          estimate D2E/DX2                !
 ! R4    R(3,4)                  1.095          estimate D2E/DX2                !
 ! R5    R(3,5)                  1.0953         estimate D2E/DX2                !
 ! R6    R(3,6)                  1.5454         estimate D2E/DX2                !
 ! R7    R(6,7)                  1.0947         estimate D2E/DX2                !
 ! R8    R(6,8)                  1.0937         estimate D2E/DX2                !
 ! R9    R(6,9)                  1.5474         estimate D2E/DX2                !
 ! R10   R(9,10)                 1.0943         estimate D2E/DX2                !
 ! R11   R(9,11)                 1.0945         estimate D2E/DX2                !
 ! R12   R(9,12)                 1.5459         estimate D2E/DX2                !
 ! R13   R(12,13)                1.0939         estimate D2E/DX2                !
 ! R14   R(12,14)                1.096          estimate D2E/DX2                !
 ! A1    A(2,1,3)              107.7654         estimate D2E/DX2                !
 ! A2    A(2,1,12)             107.7946         estimate D2E/DX2                !
 ! A3    A(3,1,12)             102.7239         estimate D2E/DX2                !
 ! A4    A(1,3,4)              110.6221         estimate D2E/DX2                !
 ! A5    A(1,3,5)              107.5946         estimate D2E/DX2                !
 ! A6    A(1,3,6)              106.9617         estimate D2E/DX2                !
 ! A7    A(4,3,5)              107.6053         estimate D2E/DX2                !
 ! A8    A(4,3,6)              113.6363         estimate D2E/DX2                !
 ! A9    A(5,3,6)              110.279          estimate D2E/DX2                !
 ! A10   A(3,6,7)              110.3782         estimate D2E/DX2                !
 ! A11   A(3,6,8)              112.0481         estimate D2E/DX2                !
 ! A12   A(3,6,9)              103.9924         estimate D2E/DX2                !
 ! A13   A(7,6,8)              107.1301         estimate D2E/DX2                !
 ! A14   A(7,6,9)              110.7358         estimate D2E/DX2                !
 ! A15   A(8,6,9)              112.6059         estimate D2E/DX2                !
 ! A16   A(6,9,10)             110.7565         estimate D2E/DX2                !
 ! A17   A(6,9,11)             112.5829         estimate D2E/DX2                !
 ! A18   A(6,9,12)             104.0073         estimate D2E/DX2                !
 ! A19   A(10,9,11)            107.145          estimate D2E/DX2                !
 ! A20   A(10,9,12)            110.3511         estimate D2E/DX2                !
 ! A21   A(11,9,12)            112.0469         estimate D2E/DX2                !
 ! A22   A(1,12,9)             106.9451         estimate D2E/DX2                !
 ! A23   A(1,12,13)            110.635          estimate D2E/DX2                !
 ! A24   A(1,12,14)            107.581          estimate D2E/DX2                !
 ! A25   A(9,12,13)            113.6523         estimate D2E/DX2                !
 ! A26   A(9,12,14)            110.2689         estimate D2E/DX2                !
 ! A27   A(13,12,14)           107.615          estimate D2E/DX2                !
 ! D1    D(2,1,3,4)            -48.7385         estimate D2E/DX2                !
 ! D2    D(2,1,3,5)           -166.0198         estimate D2E/DX2                !
 ! D3    D(2,1,3,6)             75.4998         estimate D2E/DX2                !
 ! D4    D(12,1,3,4)          -162.4            estimate D2E/DX2                !
 ! D5    D(12,1,3,5)            80.3186         estimate D2E/DX2                !
 ! D6    D(12,1,3,6)           -38.1617         estimate D2E/DX2                !
 ! D7    D(2,1,12,9)           -75.5014         estimate D2E/DX2                !
 ! D8    D(2,1,12,13)           48.7538         estimate D2E/DX2                !
 ! D9    D(2,1,12,14)          166.0459         estimate D2E/DX2                !
 ! D10   D(3,1,12,9)            38.1387         estimate D2E/DX2                !
 ! D11   D(3,1,12,13)          162.3939         estimate D2E/DX2                !
 ! D12   D(3,1,12,14)          -80.314          estimate D2E/DX2                !
 ! D13   D(1,3,6,7)            -95.3684         estimate D2E/DX2                !
 ! D14   D(1,3,6,8)            145.3276         estimate D2E/DX2                !
 ! D15   D(1,3,6,9)             23.4354         Scan                            !
 ! D16   D(4,3,6,7)             27.004          estimate D2E/DX2                !
 ! D17   D(4,3,6,8)            -92.2999         estimate D2E/DX2                !
 ! D18   D(4,3,6,9)            145.8078         estimate D2E/DX2                !
 ! D19   D(5,3,6,7)            147.9132         estimate D2E/DX2                !
 ! D20   D(5,3,6,8)             28.6092         estimate D2E/DX2                !
 ! D21   D(5,3,6,9)            -93.2831         estimate D2E/DX2                !
 ! D22   D(3,6,9,10)          -118.5629         estimate D2E/DX2                !
 ! D23   D(3,6,9,11)           121.4993         estimate D2E/DX2                !
 ! D24   D(3,6,9,12)            -0.0176         estimate D2E/DX2                !
 ! D25   D(7,6,9,10)            -0.0044         estimate D2E/DX2                !
 ! D26   D(7,6,9,11)          -119.9421         estimate D2E/DX2                !
 ! D27   D(7,6,9,12)           118.541          estimate D2E/DX2                !
 ! D28   D(8,6,9,10)           119.9156         estimate D2E/DX2                !
 ! D29   D(8,6,9,11)            -0.0222         estimate D2E/DX2                !
 ! D30   D(8,6,9,12)          -121.5391         estimate D2E/DX2                !
 ! D31   D(6,9,12,1)           -23.4104         estimate D2E/DX2                !
 ! D32   D(6,9,12,13)         -145.7976         estimate D2E/DX2                !
 ! D33   D(6,9,12,14)           93.2771         estimate D2E/DX2                !
 ! D34   D(10,9,12,1)           95.4127         estimate D2E/DX2                !
 ! D35   D(10,9,12,13)         -26.9744         estimate D2E/DX2                !
 ! D36   D(10,9,12,14)        -147.8998         estimate D2E/DX2                !
 ! D37   D(11,9,12,1)         -145.2836         estimate D2E/DX2                !
 ! D38   D(11,9,12,13)          92.3293         estimate D2E/DX2                !
 ! D39   D(11,9,12,14)         -28.5961         estimate D2E/DX2                !
 --------------------------------------------------------------------------------
 Trust Radius=3.00D-01 FncErr=1.00D-07 GrdErr=1.00D-07 EigMax=2.50D+02 EigMin=1.00D-04
 Number of optimizations in scan=   7
 Number of steps in this run=     90 maximum allowed number of steps=    100.
 GradGradGradGradGradGradGradGradGradGradGradGradGradGradGradGradGradGrad

                          Input orientation:                          
 ---------------------------------------------------------------------
 Center     Atomic      Atomic             Coordinates (Angstroms)
 Number     Number       Type             X           Y           Z
 ---------------------------------------------------------------------
      1          7           0        0.844000    0.456000    0.923000
      2          1           0        1.372000    0.495000    1.798000
      3          6           0        1.643000    1.125000   -0.113000
      4          1           0        2.000000    2.097000    0.243000
      5          1           0        0.987000    1.307000   -0.971000
      6          6           0        2.779000    0.153000   -0.504000
      7          1           0        3.689000    0.384000    0.059000
      8          1           0        3.031000    0.222000   -1.566000
      9          6           0        2.231000   -1.240000   -0.112000
     10          1           0        2.866000   -1.707000    0.647000
     11          1           0        2.185000   -1.928000   -0.962000
     12          6           0        0.830000   -0.941000    0.469000
     13          1           0        0.542000   -1.609000    1.286000
     14          1           0        0.068000   -1.027000   -0.314000
 ---------------------------------------------------------------------
                    Distance matrix (angstroms):
                    1          2          3          4          5
     1  N    0.000000
     2  H    1.022707   0.000000
     3  C    1.469441   2.030335   0.000000
     4  H    2.119343   2.319227   1.094974   0.000000
     5  H    2.081318   2.911173   1.095274   1.767502   0.000000
     6  C    2.423296   2.719525   1.545368   2.223508   2.181987
     7  H    2.974173   2.899126   2.182838   2.412664   3.035397
     8  H    3.321573   3.760759   2.202989   2.801975   2.389390
     9  C    2.423099   2.719597   2.437000   3.363771   2.961862
    10  H    2.973757   2.899248   3.177035   3.922192   3.902917
    11  H    3.321891   3.761582   3.214868   4.205577   3.449712
    12  C    1.468986   2.030296   2.295223   3.263345   2.674276
    13  H    2.118301   2.319021   3.262539   4.116801   3.714180
    14  H    2.081258   2.911605   2.674347   3.715138   2.593023
                    6          7          8          9         10
     6  C    0.000000
     7  H    1.094728   0.000000
     8  H    1.093668   1.760634   0.000000
     9  C    1.547390   2.189151   2.211687   0.000000
    10  H    2.189057   2.322790   2.940346   1.094255   0.000000
    11  H    2.212049   2.941054   2.388102   1.094514   1.761103
    12  C    2.437656   3.177673   3.215306   1.545886   2.182598
    13  H    3.363467   3.921886   4.204948   2.223350   2.412240
    14  H    2.962773   3.904061   3.450634   2.182829   3.035577
                   11         12         13         14
    11  H    0.000000
    12  C    2.204077   0.000000
    13  H    2.802626   1.093918   0.000000
    14  H    2.390271   1.095960   1.767314   0.000000
 Stoichiometry    C4H9N
 Framework group  C1[X(C4H9N)]
 Deg. of freedom    36
 Full point group                 C1      NOp   1
 Largest Abelian subgroup         C1      NOp   1
 Largest concise Abelian subgroup C1      NOp   1
                         Standard orientation:                         
 ---------------------------------------------------------------------
 Center     Atomic      Atomic             Coordinates (Angstroms)
 Number     Number       Type             X           Y           Z
 ---------------------------------------------------------------------
      1          7           0       -0.009754   -1.267896   -0.216048
      2          1           0       -0.009609   -1.307741   -1.237979
      3          6           0        1.144047   -0.459296    0.201285
      4          1           0        2.052841   -0.790293   -0.312042
      5          1           0        1.291688   -0.622098    1.274281
      6          6           0        0.781546    1.017994   -0.071425
      7          1           0        1.171547    1.332796   -1.044681
      8          1           0        1.207027    1.690375    0.678894
      9          6           0       -0.765800    1.029688   -0.071443
     10          1           0       -1.151178    1.350244   -1.044131
     11          1           0       -1.181004    1.708768    0.679833
     12          6           0       -1.151114   -0.442432    0.200878
     13          1           0       -2.063843   -0.759288   -0.312137
     14          1           0       -1.301266   -0.603214    1.274532
 ---------------------------------------------------------------------
 Rotational constants (GHZ):           6.8866106           6.6914801           3.9136725
 Standard basis: 6-31G(d) (6D, 7F)
 There are    93 symmetry adapted cartesian basis functions of A   symmetry.
 There are    93 symmetry adapted basis functions of A   symmetry.
    93 basis functions,   176 primitive gaussians,    93 cartesian basis functions
    20 alpha electrons       20 beta electrons
       nuclear repulsion energy       190.0136865772 Hartrees.
 NAtoms=   14 NActive=   14 NUniq=   14 SFac= 1.00D+00 NAtFMM=   60 NAOKFM=F Big=F
 Integral buffers will be    131072 words long.
 Raffenetti 1 integral format.
 Two-electron integral symmetry is turned on.
 One-electron integrals computed using PRISM.
 NBasis=    93 RedAO= T EigKep=  3.15D-03  NBF=    93
 NBsUse=    93 1.00D-06 EigRej= -1.00D+00 NBFU=    93
 ExpMin= 1.61D-01 ExpMax= 4.17D+03 ExpMxC= 6.27D+02 IAcc=3 IRadAn=         5 AccDes= 0.00D+00
 Harris functional with IExCor=  205 and IRadAn=       5 diagonalized for initial guess.
 HarFok:  IExCor=  205 AccDes= 0.00D+00 IRadAn=         5 IDoV= 1 UseB2=F ITyADJ=14
 ICtDFT=  3500011 ScaDFX=  1.000000  1.000000  1.000000  1.000000
 FoFCou: FMM=F IPFlag=           0 FMFlag=      100000 FMFlg1=           0
         NFxFlg=           0 DoJE=T BraDBF=F KetDBF=T FulRan=T
         wScrn=  0.000000 ICntrl=       500 IOpCl=  0 I1Cent=   200000004 NGrid=           0
         NMat0=    1 NMatS0=      1 NMatT0=    0 NMatD0=    1 NMtDS0=    0 NMtDT0=    0
 Petite list used in FoFCou.
 Keep R1 ints in memory in canonical form, NReq=10436288.
 Requested convergence on RMS density matrix=1.00D-08 within 128 cycles.
 Requested convergence on MAX density matrix=1.00D-06.
 Requested convergence on             energy=1.00D-06.
 No special actions if energy rises.
 SCF Done:  E(RHF) =  -211.143200098     A.U. after   12 cycles
            NFock= 12  Conv=0.39D-08     -V/T= 2.0015
 ExpMin= 1.61D-01 ExpMax= 4.17D+03 ExpMxC= 6.27D+02 IAcc=3 IRadAn=         5 AccDes= 0.00D+00
 HarFok:  IExCor=  205 AccDes= 0.00D+00 IRadAn=         5 IDoV=-2 UseB2=F ITyADJ=14
 ICtDFT= 12500011 ScaDFX=  1.000000  1.000000  1.000000  1.000000
 Range of M.O.s used for correlation:     6    93
 NBasis=    93 NAE=    20 NBE=    20 NFC=     5 NFV=     0
 NROrb=     88 NOA=    15 NOB=    15 NVA=    73 NVB=    73
 Fully direct method using O(ONN) memory.
 JobTyp=1 Pass  1:  I=   6 to  20 NPSUse=  1 ParTrn=F ParDer=F DoDerP=T.
 Spin components of T(2) and E(2):
     alpha-alpha T2 =       0.2790801328D-01 E2=     -0.8405127363D-01
     alpha-beta  T2 =       0.1679168201D+00 E2=     -0.5160463410D+00
     beta-beta   T2 =       0.2790801328D-01 E2=     -0.8405127363D-01
 ANorm=    0.1106224591D+01
 E2 =    -0.6841488883D+00 EUMP2 =    -0.21182734898599D+03
          IDoAtm=11111111111111
          Differentiating once with respect to electric field.
                with respect to dipole field.
          Differentiating once with respect to nuclear coordinates.
 Keep R1 ints in memory in canonical form, NReq=10438744.
          There are     1 degrees of freedom in the 1st order CPHF.  IDoFFX=0 NUNeed=     1.
 LinEq1:  Iter=  0 NonCon=     1 RMS=4.26D-03 Max=4.54D-02 NDo=     1
 AX will form     1 AO Fock derivatives at one time.
 LinEq1:  Iter=  1 NonCon=     1 RMS=1.43D-03 Max=1.40D-02 NDo=     1
 LinEq1:  Iter=  2 NonCon=     1 RMS=2.90D-04 Max=3.43D-03 NDo=     1
 LinEq1:  Iter=  3 NonCon=     1 RMS=5.58D-05 Max=4.08D-04 NDo=     1
 LinEq1:  Iter=  4 NonCon=     1 RMS=1.18D-05 Max=1.55D-04 NDo=     1
 LinEq1:  Iter=  5 NonCon=     1 RMS=4.47D-06 Max=3.98D-05 NDo=     1
 LinEq1:  Iter=  6 NonCon=     1 RMS=1.05D-06 Max=1.56D-05 NDo=     1
 LinEq1:  Iter=  7 NonCon=     1 RMS=1.91D-07 Max=1.83D-06 NDo=     1
 LinEq1:  Iter=  8 NonCon=     1 RMS=6.29D-08 Max=5.75D-07 NDo=     1
 LinEq1:  Iter=  9 NonCon=     1 RMS=1.37D-08 Max=1.24D-07 NDo=     1
 LinEq1:  Iter= 10 NonCon=     1 RMS=3.65D-09 Max=2.96D-08 NDo=     1
 LinEq1:  Iter= 11 NonCon=     1 RMS=6.11D-10 Max=7.96D-09 NDo=     1
 LinEq1:  Iter= 12 NonCon=     1 RMS=1.20D-10 Max=1.50D-09 NDo=     1
 LinEq1:  Iter= 13 NonCon=     0 RMS=1.91D-11 Max=1.76D-10 NDo=     1
 Linear equations converged to 1.000D-10 1.000D-09 after    13 iterations.
 End of Minotr F.D. properties file   721 does not exist.
 End of Minotr F.D. properties file   722 does not exist.
 End of Minotr F.D. properties file   788 does not exist.

 **********************************************************************

            Population analysis using the SCF density.

 **********************************************************************

 Orbital symmetries:
       Occupied  (A) (A) (A) (A) (A) (A) (A) (A) (A) (A) (A) (A)
                 (A) (A) (A) (A) (A) (A) (A) (A)
       Virtual   (A) (A) (A) (A) (A) (A) (A) (A) (A) (A) (A) (A)
                 (A) (A) (A) (A) (A) (A) (A) (A) (A) (A) (A) (A)
                 (A) (A) (A) (A) (A) (A) (A) (A) (A) (A) (A) (A)
                 (A) (A) (A) (A) (A) (A) (A) (A) (A) (A) (A) (A)
                 (A) (A) (A) (A) (A) (A) (A) (A) (A) (A) (A) (A)
                 (A) (A) (A) (A) (A) (A) (A) (A) (A) (A) (A) (A)
                 (A)
 The electronic state is 1-A.
 Alpha  occ. eigenvalues --  -15.54076 -11.24200 -11.24195 -11.21855 -11.21799
 Alpha  occ. eigenvalues --   -1.21663  -1.01921  -0.96899  -0.81410  -0.78334
 Alpha  occ. eigenvalues --   -0.67516  -0.63699  -0.58968  -0.58396  -0.50622
 Alpha  occ. eigenvalues --   -0.49289  -0.47912  -0.47626  -0.45740  -0.37275
 Alpha virt. eigenvalues --    0.21279   0.24725   0.28660   0.29029   0.30117
 Alpha virt. eigenvalues --    0.32558   0.33858   0.33958   0.36392   0.37738
 Alpha virt. eigenvalues --    0.40785   0.41401   0.48517   0.52442   0.72779
 Alpha virt. eigenvalues --    0.76267   0.76616   0.79767   0.80365   0.83842
 Alpha virt. eigenvalues --    0.90478   0.92044   0.92595   0.94963   1.01860
 Alpha virt. eigenvalues --    1.02452   1.09480   1.10988   1.12808   1.13150
 Alpha virt. eigenvalues --    1.15438   1.17173   1.19496   1.20850   1.21106
 Alpha virt. eigenvalues --    1.23722   1.24020   1.24151   1.49539   1.52543
 Alpha virt. eigenvalues --    1.59180   1.59545   1.69288   1.90975   2.00838
 Alpha virt. eigenvalues --    2.08684   2.12260   2.13555   2.19833   2.22442
 Alpha virt. eigenvalues --    2.29045   2.31775   2.35028   2.42288   2.43267
 Alpha virt. eigenvalues --    2.43361   2.51046   2.57266   2.59218   2.71449
 Alpha virt. eigenvalues --    2.73627   2.81719   2.90009   2.95574   2.97825
 Alpha virt. eigenvalues --    2.98905   3.02819   3.24107   4.34967   4.60737
 Alpha virt. eigenvalues --    4.68019   4.86124   5.04389
          Condensed to atoms (all electrons):
               1          2          3          4          5          6
     1  N    7.058662   0.327541   0.294203  -0.033404  -0.047556  -0.084999
     2  H    0.327541   0.433304  -0.042392  -0.005379   0.005680  -0.000687
     3  C    0.294203  -0.042392   4.977886   0.403748   0.406065   0.333688
     4  H   -0.033404  -0.005379   0.403748   0.521240  -0.026325  -0.035555
     5  H   -0.047556   0.005680   0.406065  -0.026325   0.544869  -0.053864
     6  C   -0.084999  -0.000687   0.333688  -0.035555  -0.053864   5.205597
     7  H    0.002637   0.000959  -0.038300  -0.004204   0.003824   0.396024
     8  H    0.004386  -0.000026  -0.032387   0.001335  -0.002463   0.391464
     9  C   -0.085089  -0.000691  -0.061393   0.003840  -0.000390   0.321496
    10  H    0.002649   0.000958   0.003257  -0.000161  -0.000013  -0.038489
    11  H    0.004384  -0.000026   0.002984  -0.000064   0.000166  -0.033459
    12  C    0.294002  -0.042370  -0.094809   0.006117  -0.001884  -0.061284
    13  H   -0.033416  -0.005385   0.006123  -0.000114  -0.000171   0.003829
    14  H   -0.047622   0.005682  -0.001900  -0.000171   0.003456  -0.000382
               7          8          9         10         11         12
     1  N    0.002637   0.004386  -0.085089   0.002649   0.004384   0.294002
     2  H    0.000959  -0.000026  -0.000691   0.000958  -0.000026  -0.042370
     3  C   -0.038300  -0.032387  -0.061393   0.003257   0.002984  -0.094809
     4  H   -0.004204   0.001335   0.003840  -0.000161  -0.000064   0.006117
     5  H    0.003824  -0.002463  -0.000390  -0.000013   0.000166  -0.001884
     6  C    0.396024   0.391464   0.321496  -0.038489  -0.033459  -0.061284
     7  H    0.542616  -0.025836  -0.038527  -0.006280   0.002599   0.003251
     8  H   -0.025836   0.527014  -0.033400   0.002596  -0.003631   0.002974
     9  C   -0.038527  -0.033400   5.205831   0.395992   0.391377   0.333836
    10  H   -0.006280   0.002596   0.395992   0.542443  -0.025801  -0.038327
    11  H    0.002599  -0.003631   0.391377  -0.025801   0.527314  -0.032361
    12  C    0.003251   0.002974   0.333836  -0.038327  -0.032361   4.977646
    13  H   -0.000161  -0.000063  -0.035505  -0.004188   0.001332   0.403827
    14  H   -0.000013   0.000165  -0.053852   0.003822  -0.002460   0.406044
              13         14
     1  N   -0.033416  -0.047622
     2  H   -0.005385   0.005682
     3  C    0.006123  -0.001900
     4  H   -0.000114  -0.000171
     5  H   -0.000171   0.003456
     6  C    0.003829  -0.000382
     7  H   -0.000161  -0.000013
     8  H   -0.000063   0.000165
     9  C   -0.035505  -0.053852
    10  H   -0.004188   0.003822
    11  H    0.001332  -0.002460
    12  C    0.403827   0.406044
    13  H    0.520894  -0.026326
    14  H   -0.026326   0.545162
 Mulliken charges:
               1
     1  N   -0.656379
     2  H    0.322831
     3  C   -0.156772
     4  H    0.169095
     5  H    0.168606
     6  C   -0.343380
     7  H    0.161410
     8  H    0.167872
     9  C   -0.343527
    10  H    0.161542
    11  H    0.167645
    12  C   -0.156662
    13  H    0.169324
    14  H    0.168395
 Sum of Mulliken charges =  -0.00000
 Mulliken charges with hydrogens summed into heavy atoms:
               1
     1  N   -0.333548
     3  C    0.180929
     6  C   -0.014098
     9  C   -0.014340
    12  C    0.181057
 Electronic spatial extent (au):  <R**2>=            390.2955
 Charge=             -0.0000 electrons
 Dipole moment (field-independent basis, Debye):
    X=              0.0108    Y=              1.4000    Z=             -0.6708  Tot=              1.5525
 Quadrupole moment (field-independent basis, Debye-Ang):
   XX=            -31.4430   YY=            -37.4386   ZZ=            -30.3356
   XY=             -0.0423   XZ=              0.0141   YZ=              1.4414
 Traceless Quadrupole moment (field-independent basis, Debye-Ang):
   XX=              1.6294   YY=             -4.3662   ZZ=              2.7368
   XY=             -0.0423   XZ=              0.0141   YZ=              1.4414
 Octapole moment (field-independent basis, Debye-Ang**2):
  XXX=             -0.0557  YYY=              7.4680  ZZZ=             -2.5630  XYY=              0.0925
  XXY=             -2.2856  XXZ=             -1.0006  XZZ=             -0.0165  YZZ=             -2.3218
  YYZ=             -1.4684  XYZ=             -0.0024
 Hexadecapole moment (field-independent basis, Debye-Ang**3):
 XXXX=           -226.6934 YYYY=           -248.7377 ZZZZ=            -65.8087 XXXY=              0.0072
 XXXZ=              0.0625 YYYX=             -0.1840 YYYZ=              5.7507 ZZZX=              0.0341
 ZZZY=              3.2304 XXYY=            -75.0449 XXZZ=            -48.5104 YYZZ=            -45.1589
 XXYZ=              2.0821 YYXZ=              0.0159 ZZXY=              0.0194
 N-N= 1.900136865772D+02 E-N=-8.720763185249D+02  KE= 2.108304137868D+02
 Calling FoFJK, ICntrl=  10002127 FMM=F ISym2X=0 I1Cent= 0 IOpClX= 0 NMat=1 NMatS=1 NMatT=0.
 ***** Axes restored to original set *****
 -------------------------------------------------------------------
 Center     Atomic                   Forces (Hartrees/Bohr)
 Number     Number              X              Y              Z
 -------------------------------------------------------------------
      1        7           0.000067218    0.000324295    0.000355385
      2        1          -0.000147219   -0.000035560   -0.000241089
      3        6           0.000758105    0.000773310    0.000735129
      4        1          -0.000288273   -0.000698691   -0.000271797
      5        1          -0.000308412    0.000033250   -0.000433494
      6        6          -0.000098258    0.000152779    0.000315185
      7        1          -0.000099833   -0.000004959   -0.000060197
      8        1           0.000110722   -0.000045813   -0.000301852
      9        6          -0.000507108   -0.000177978   -0.000275408
     10        1           0.000133008   -0.000094664    0.000103544
     11        1           0.000074374    0.000132703    0.000198827
     12        6           0.000296758   -0.000382461    0.000076681
     13        1           0.000028013    0.000050298   -0.000099903
     14        1          -0.000019094   -0.000026509   -0.000101012
 -------------------------------------------------------------------
 Cartesian Forces:  Max     0.000773310 RMS     0.000306300

 GradGradGradGradGradGradGradGradGradGradGradGradGradGradGradGradGradGrad
 Berny optimization.
 FormGI is forming the generalized inverse of G from B-inverse, IUseBI=4.
 Internal  Forces:  Max     0.000802576 RMS     0.000137397
 Search for a local minimum.
 Step number   1 out of a maximum of   90 on scan point     1 out of     7
 All quantities printed in internal units (Hartrees-Bohrs-Radians)
 Mixed Optimization -- En-DIIS/RFO-DIIS
 Second derivative matrix not updated -- first step.
 ITU=  0
     Eigenvalues ---    0.00565   0.01463   0.02311   0.02408   0.04343
     Eigenvalues ---    0.04575   0.04959   0.05414   0.05521   0.05727
     Eigenvalues ---    0.05918   0.06889   0.06892   0.08232   0.08733
     Eigenvalues ---    0.08798   0.09319   0.11014   0.11400   0.20466
     Eigenvalues ---    0.20554   0.26479   0.26847   0.28012   0.33497
     Eigenvalues ---    0.34133   0.34210   0.34244   0.34272   0.34296
     Eigenvalues ---    0.34322   0.34325   0.34364   0.34392   0.43909
     Eigenvalues --- 1000.000001000.000001000.000001000.000001000.00000
     Eigenvalues --- 1000.000001000.000001000.000001000.000001000.00000
     Eigenvalues --- 1000.000001000.000001000.000001000.000001000.00000
     Eigenvalues --- 1000.000001000.000001000.000001000.000001000.00000
     Eigenvalues --- 1000.000001000.000001000.000001000.000001000.00000
     Eigenvalues --- 1000.000001000.000001000.000001000.000001000.00000
     Eigenvalues --- 1000.000001000.000001000.000001000.000001000.00000
     Eigenvalues --- 1000.000001000.000001000.000001000.000001000.00000
     Eigenvalues --- 1000.000001000.000001000.000001000.000001000.00000
 RFO step:  Lambda=-4.86167069D-06 EMin= 5.65462185D-03
 Linear search not attempted -- first point.
 Iteration  1 RMS(Cart)=  0.00041073 RMS(Int)=  0.00000026
 Iteration  2 RMS(Cart)=  0.00000021 RMS(Int)=  0.00000008
 Iteration  1 RMS(Cart)=  0.00000000 RMS(Int)=  0.00000001
 Variable       Old X    -DE/DX   Delta X   Delta X   Delta X     New X
                                 (Linear)    (Quad)   (Total)
    R1        1.93264  -0.00028   0.00000  -0.00065  -0.00065   1.93199
    R2        2.77684   0.00007   0.00000   0.00023   0.00023   2.77707
    R3        2.77598   0.00035   0.00000   0.00104   0.00104   2.77702
    R4        2.06920  -0.00080   0.00000  -0.00234  -0.00234   2.06686
    R5        2.06977   0.00053   0.00000   0.00155   0.00155   2.07132
    R6        2.92032  -0.00004   0.00000  -0.00015  -0.00015   2.92017
    R7        2.06874  -0.00011   0.00000  -0.00034  -0.00034   2.06840
    R8        2.06673   0.00032   0.00000   0.00092   0.00092   2.06765
    R9        2.92414   0.00015   0.00000   0.00045   0.00045   2.92460
   R10        2.06784   0.00019   0.00000   0.00055   0.00055   2.06839
   R11        2.06833  -0.00024   0.00000  -0.00070  -0.00070   2.06763
   R12        2.92130  -0.00026   0.00000  -0.00096  -0.00096   2.92034
   R13        2.06721  -0.00011   0.00000  -0.00033  -0.00033   2.06688
   R14        2.07106   0.00009   0.00000   0.00026   0.00026   2.07132
    A1        1.88086   0.00002   0.00000   0.00004   0.00004   1.88090
    A2        1.88137  -0.00002   0.00000  -0.00025  -0.00025   1.88112
    A3        1.79287  -0.00003   0.00000   0.00006   0.00006   1.79293
    A4        1.93072   0.00001   0.00000   0.00033   0.00033   1.93105
    A5        1.87788   0.00001   0.00000  -0.00028  -0.00028   1.87760
    A6        1.86683  -0.00005   0.00000  -0.00019  -0.00019   1.86664
    A7        1.87807   0.00000   0.00000   0.00014   0.00014   1.87821
    A8        1.98333   0.00006   0.00000   0.00058   0.00058   1.98391
    A9        1.92473  -0.00005   0.00000  -0.00063  -0.00063   1.92410
   A10        1.92646  -0.00005   0.00000  -0.00029  -0.00029   1.92618
   A11        1.95561   0.00003   0.00000   0.00059   0.00059   1.95620
   A12        1.81501   0.00008   0.00000   0.00038   0.00038   1.81539
   A13        1.86977   0.00001   0.00000  -0.00019  -0.00019   1.86959
   A14        1.93270   0.00000   0.00000   0.00002   0.00002   1.93272
   A15        1.96534  -0.00007   0.00000  -0.00051  -0.00051   1.96484
   A16        1.93307  -0.00001   0.00000  -0.00022  -0.00022   1.93284
   A17        1.96494  -0.00000   0.00000   0.00001   0.00001   1.96495
   A18        1.81527  -0.00001   0.00000  -0.00006  -0.00006   1.81521
   A19        1.87003  -0.00003   0.00000  -0.00042  -0.00042   1.86961
   A20        1.92599   0.00001   0.00000   0.00012   0.00012   1.92611
   A21        1.95559   0.00004   0.00000   0.00059   0.00059   1.95617
   A22        1.86654   0.00003   0.00000   0.00033   0.00033   1.86688
   A23        1.93094   0.00001   0.00000   0.00033   0.00033   1.93127
   A24        1.87764   0.00001   0.00000   0.00005   0.00005   1.87769
   A25        1.98361  -0.00001   0.00000   0.00006   0.00006   1.98367
   A26        1.92455  -0.00006   0.00000  -0.00076  -0.00076   1.92380
   A27        1.87824   0.00001   0.00000  -0.00002  -0.00002   1.87822
    D1       -0.85065  -0.00002   0.00000  -0.00038  -0.00038  -0.85102
    D2       -2.89759  -0.00004   0.00000  -0.00057  -0.00057  -2.89816
    D3        1.31772   0.00004   0.00000   0.00042   0.00042   1.31814
    D4       -2.83442   0.00002   0.00000  -0.00014  -0.00014  -2.83455
    D5        1.40182  -0.00001   0.00000  -0.00033  -0.00033   1.40150
    D6       -0.66605   0.00007   0.00000   0.00066   0.00066  -0.66539
    D7       -1.31775  -0.00002   0.00000  -0.00065  -0.00065  -1.31839
    D8        0.85091  -0.00000   0.00000  -0.00015  -0.00015   0.85077
    D9        2.89805   0.00003   0.00000   0.00004   0.00004   2.89809
   D10        0.66565  -0.00001   0.00000  -0.00067  -0.00067   0.66497
   D11        2.83431   0.00000   0.00000  -0.00017  -0.00017   2.83413
   D12       -1.40174   0.00003   0.00000   0.00002   0.00002  -1.40173
   D13       -1.66449  -0.00003   0.00000  -0.00009  -0.00009  -1.66459
   D14        2.53645  -0.00002   0.00000  -0.00005  -0.00005   2.53639
   D15        0.40902  -0.00001   0.00000   0.00000  -0.00000   0.40902
   D16        0.47131  -0.00000   0.00000   0.00055   0.00055   0.47186
   D17       -1.61094   0.00000   0.00000   0.00059   0.00059  -1.61034
   D18        2.54483   0.00002   0.00000   0.00064   0.00064   2.54547
   D19        2.58157   0.00001   0.00000   0.00067   0.00067   2.58225
   D20        0.49932   0.00001   0.00000   0.00072   0.00072   0.50004
   D21       -1.62810   0.00003   0.00000   0.00077   0.00077  -1.62733
   D22       -2.06931   0.00001   0.00000  -0.00040  -0.00040  -2.06971
   D23        2.12056   0.00005   0.00000   0.00029   0.00029   2.12085
   D24       -0.00031   0.00001   0.00000  -0.00039  -0.00039  -0.00070
   D25       -0.00008  -0.00001   0.00000  -0.00051  -0.00051  -0.00058
   D26       -2.09339   0.00003   0.00000   0.00018   0.00018  -2.09321
   D27        2.06893  -0.00000   0.00000  -0.00050  -0.00050   2.06843
   D28        2.09292  -0.00005   0.00000  -0.00108  -0.00108   2.09185
   D29       -0.00039  -0.00000   0.00000  -0.00039  -0.00039  -0.00078
   D30       -2.12126  -0.00004   0.00000  -0.00107  -0.00107  -2.12233
   D31       -0.40859   0.00002   0.00000   0.00073   0.00073  -0.40786
   D32       -2.54465  -0.00001   0.00000   0.00004   0.00004  -2.54460
   D33        1.62799   0.00002   0.00000   0.00058   0.00058   1.62857
   D34        1.66527   0.00001   0.00000   0.00050   0.00050   1.66576
   D35       -0.47079  -0.00002   0.00000  -0.00019  -0.00019  -0.47098
   D36       -2.58134   0.00001   0.00000   0.00034   0.00034  -2.58099
   D37       -2.53568   0.00001   0.00000   0.00044   0.00044  -2.53524
   D38        1.61145  -0.00002   0.00000  -0.00025  -0.00025   1.61120
   D39       -0.49910   0.00001   0.00000   0.00028   0.00028  -0.49881
         Item               Value     Threshold  Converged?
 Maximum Force            0.000803     0.000450     NO 
 RMS     Force            0.000138     0.000300     YES
 Maximum Displacement     0.001080     0.001800     YES
 RMS     Displacement     0.000411     0.001200     YES
 Predicted change in Energy=-2.430778D-06
 GradGradGradGradGradGradGradGradGradGradGradGradGradGradGradGradGradGrad

                          Input orientation:                          
 ---------------------------------------------------------------------
 Center     Atomic      Atomic             Coordinates (Angstroms)
 Number     Number       Type             X           Y           Z
 ---------------------------------------------------------------------
      1          7           0        0.844061    0.456478    0.923288
      2          1           0        1.371727    0.495358    1.798096
      3          6           0        1.643314    1.125572   -0.112630
      4          1           0        1.999746    2.096650    0.242641
      5          1           0        0.986878    1.307145   -0.971434
      6          6           0        2.778808    0.153155   -0.503750
      7          1           0        3.688629    0.383876    0.059309
      8          1           0        3.031407    0.221773   -1.566133
      9          6           0        2.230547   -1.240123   -0.112160
     10          1           0        2.866028   -1.707559    0.646589
     11          1           0        2.184743   -1.927694   -0.962040
     12          6           0        0.830292   -0.941097    0.469272
     13          1           0        0.542398   -1.609223    1.285973
     14          1           0        0.068422   -1.027312   -0.314021
 ---------------------------------------------------------------------
                    Distance matrix (angstroms):
                    1          2          3          4          5
     1  N    0.000000
     2  H    1.022365   0.000000
     3  C    1.469564   2.030222   0.000000
     4  H    2.118738   2.319048   1.093734   0.000000
     5  H    2.081826   2.911597   1.096093   1.767256   0.000000
     6  C    2.423157   2.719463   1.545289   2.222884   2.182071
     7  H    2.973768   2.898938   2.182427   2.412370   3.035508
     8  H    3.322166   3.761306   2.203707   2.801990   2.389936
     9  C    2.423418   2.720027   2.437490   3.363511   2.962033
    10  H    2.974554   2.900301   3.177747   3.922451   3.903543
    11  H    3.322073   3.761718   3.215132   4.204857   3.449515
    12  C    1.469536   2.030352   2.295808   3.262957   2.674835
    13  H    2.118883   2.319336   3.263006   4.116540   3.714654
    14  H    2.081870   2.911729   2.675023   3.714703   2.593346
                    6          7          8          9         10
     6  C    0.000000
     7  H    1.094551   0.000000
     8  H    1.094153   1.760761   0.000000
     9  C    1.547629   2.189242   2.211912   0.000000
    10  H    2.189325   2.322858   2.940376   1.094547   0.000000
    11  H    2.211984   2.940779   2.387881   1.094142   1.760766
    12  C    2.437391   3.177060   3.215594   1.545378   2.182459
    13  H    3.363126   3.921214   4.205023   2.222804   2.411999
    14  H    2.962379   3.903424   3.450692   2.181930   3.035146
                   11         12         13         14
    11  H    0.000000
    12  C    2.203761   0.000000
    13  H    2.802193   1.093745   0.000000
    14  H    2.389441   1.096096   1.767274   0.000000
 Stoichiometry    C4H9N
 Framework group  C1[X(C4H9N)]
 Deg. of freedom    36
 Full point group                 C1      NOp   1
 Largest Abelian subgroup         C1      NOp   1
 Largest concise Abelian subgroup C1      NOp   1
                         Standard orientation:                         
 ---------------------------------------------------------------------
 Center     Atomic      Atomic             Coordinates (Angstroms)
 Number     Number       Type             X           Y           Z
 ---------------------------------------------------------------------
      1          7           0        0.003242   -1.268169   -0.215868
      2          1           0        0.003634   -1.308399   -1.237441
      3          6           0        1.149028   -0.447826    0.201061
      4          1           0        2.060258   -0.769523   -0.311215
      5          1           0        1.297930   -0.608604    1.275025
      6          6           0        0.771232    1.025538   -0.071676
      7          1           0        1.157755    1.343919   -1.044956
      8          1           0        1.189902    1.703158    0.678469
      9          6           0       -0.776393    1.021854   -0.071240
     10          1           0       -1.165098    1.338943   -1.044070
     11          1           0       -1.197971    1.696852    0.679624
     12          6           0       -1.146772   -0.453632    0.200706
     13          1           0       -2.056270   -0.779475   -0.312048
     14          1           0       -1.295407   -0.615282    1.274579
 ---------------------------------------------------------------------
 Rotational constants (GHZ):           6.8850335           6.6919819           3.9131398
 Standard basis: 6-31G(d) (6D, 7F)
 There are    93 symmetry adapted cartesian basis functions of A   symmetry.
 There are    93 symmetry adapted basis functions of A   symmetry.
    93 basis functions,   176 primitive gaussians,    93 cartesian basis functions
    20 alpha electrons       20 beta electrons
       nuclear repulsion energy       190.0070395972 Hartrees.
 NAtoms=   14 NActive=   14 NUniq=   14 SFac= 1.00D+00 NAtFMM=   60 NAOKFM=F Big=F
 Integral buffers will be    131072 words long.
 Raffenetti 1 integral format.
 Two-electron integral symmetry is turned on.
 One-electron integrals computed using PRISM.
 NBasis=    93 RedAO= T EigKep=  3.15D-03  NBF=    93
 NBsUse=    93 1.00D-06 EigRej= -1.00D+00 NBFU=    93
 Initial guess from the checkpoint file:  "PRLD.scan4.neg.chk"
 B after Tr=    -0.000000    0.000000   -0.000000
         Rot=    0.999987    0.000085   -0.000014   -0.005026 Ang=   0.58 deg.
 Keep R1 ints in memory in canonical form, NReq=10436318.
 Requested convergence on RMS density matrix=1.00D-08 within 128 cycles.
 Requested convergence on MAX density matrix=1.00D-06.
 Requested convergence on             energy=1.00D-06.
 No special actions if energy rises.
 SCF Done:  E(RHF) =  -211.143210240     A.U. after    7 cycles
            NFock=  7  Conv=0.90D-08     -V/T= 2.0015
 ExpMin= 1.61D-01 ExpMax= 4.17D+03 ExpMxC= 6.27D+02 IAcc=3 IRadAn=         5 AccDes= 0.00D+00
 HarFok:  IExCor=  205 AccDes= 0.00D+00 IRadAn=         5 IDoV=-2 UseB2=F ITyADJ=14
 ICtDFT= 12500011 ScaDFX=  1.000000  1.000000  1.000000  1.000000
 Range of M.O.s used for correlation:     6    93
 NBasis=    93 NAE=    20 NBE=    20 NFC=     5 NFV=     0
 NROrb=     88 NOA=    15 NOB=    15 NVA=    73 NVB=    73
 Fully direct method using O(ONN) memory.
 JobTyp=1 Pass  1:  I=   6 to  20 NPSUse=  1 ParTrn=F ParDer=F DoDerP=T.
 Spin components of T(2) and E(2):
     alpha-alpha T2 =       0.2790767496D-01 E2=     -0.8404935690D-01
     alpha-beta  T2 =       0.1679156699D+00 E2=     -0.5160424671D+00
     beta-beta   T2 =       0.2790767496D-01 E2=     -0.8404935690D-01
 ANorm=    0.1106223766D+01
 E2 =    -0.6841411809D+00 EUMP2 =    -0.21182735142103D+03
          IDoAtm=11111111111111
          Differentiating once with respect to electric field.
                with respect to dipole field.
          Differentiating once with respect to nuclear coordinates.
 Keep R1 ints in memory in canonical form, NReq=10438744.
          There are     1 degrees of freedom in the 1st order CPHF.  IDoFFX=0 NUNeed=     1.
 LinEq1:  Iter=  0 NonCon=     1 RMS=4.26D-03 Max=4.53D-02 NDo=     1
 AX will form     1 AO Fock derivatives at one time.
 LinEq1:  Iter=  1 NonCon=     1 RMS=1.43D-03 Max=1.40D-02 NDo=     1
 LinEq1:  Iter=  2 NonCon=     1 RMS=2.90D-04 Max=3.42D-03 NDo=     1
 LinEq1:  Iter=  3 NonCon=     1 RMS=5.59D-05 Max=4.10D-04 NDo=     1
 LinEq1:  Iter=  4 NonCon=     1 RMS=1.19D-05 Max=1.55D-04 NDo=     1
 LinEq1:  Iter=  5 NonCon=     1 RMS=4.50D-06 Max=4.00D-05 NDo=     1
 LinEq1:  Iter=  6 NonCon=     1 RMS=1.05D-06 Max=1.55D-05 NDo=     1
 LinEq1:  Iter=  7 NonCon=     1 RMS=1.92D-07 Max=1.83D-06 NDo=     1
 LinEq1:  Iter=  8 NonCon=     1 RMS=6.32D-08 Max=5.78D-07 NDo=     1
 LinEq1:  Iter=  9 NonCon=     1 RMS=1.37D-08 Max=1.25D-07 NDo=     1
 LinEq1:  Iter= 10 NonCon=     1 RMS=3.65D-09 Max=2.96D-08 NDo=     1
 LinEq1:  Iter= 11 NonCon=     1 RMS=6.11D-10 Max=7.96D-09 NDo=     1
 LinEq1:  Iter= 12 NonCon=     1 RMS=1.20D-10 Max=1.50D-09 NDo=     1
 LinEq1:  Iter= 13 NonCon=     0 RMS=1.90D-11 Max=1.76D-10 NDo=     1
 Linear equations converged to 1.000D-10 1.000D-09 after    13 iterations.
 End of Minotr F.D. properties file   721 does not exist.
 End of Minotr F.D. properties file   722 does not exist.
 End of Minotr F.D. properties file   788 does not exist.
 Calling FoFJK, ICntrl=  10002127 FMM=F ISym2X=0 I1Cent= 0 IOpClX= 0 NMat=1 NMatS=1 NMatT=0.
 ***** Axes restored to original set *****
 -------------------------------------------------------------------
 Center     Atomic                   Forces (Hartrees/Bohr)
 Number     Number              X              Y              Z
 -------------------------------------------------------------------
      1        7          -0.000047579    0.000030568    0.000030051
      2        1           0.000006462   -0.000017057    0.000010645
      3        6           0.000048376   -0.000044440   -0.000035182
      4        1           0.000000868   -0.000003431    0.000011039
      5        1          -0.000012315   -0.000011648   -0.000001369
      6        6          -0.000015669    0.000059433   -0.000029777
      7        1           0.000015535   -0.000008846    0.000004700
      8        1           0.000010401   -0.000007131    0.000005493
      9        6          -0.000085721    0.000017221    0.000067134
     10        1           0.000035448    0.000001898   -0.000009316
     11        1           0.000009880    0.000008536   -0.000004597
     12        6           0.000065483   -0.000089179   -0.000074000
     13        1          -0.000010175    0.000033322    0.000014294
     14        1          -0.000020993    0.000030754    0.000010885
 -------------------------------------------------------------------
 Cartesian Forces:  Max     0.000089179 RMS     0.000034520

 GradGradGradGradGradGradGradGradGradGradGradGradGradGradGradGradGradGrad
 Berny optimization.
 Using GEDIIS/GDIIS optimizer.
 FormGI is forming the generalized inverse of G from B-inverse, IUseBI=4.
 Internal  Forces:  Max     0.000037806 RMS     0.000013203
 Search for a local minimum.
 Step number   2 out of a maximum of   90 on scan point     1 out of     7
 All quantities printed in internal units (Hartrees-Bohrs-Radians)
 Mixed Optimization -- En-DIIS/RFO-DIIS
 Swapping is turned off.
 Update second derivatives using D2CorX and points    1    2
 DE= -2.44D-06 DEPred=-2.43D-06 R= 1.00D+00
 TightC=F SS=  1.41D+00  RLast= 5.06D-03 DXNew= 5.0454D-01 1.5170D-02
 Trust test= 1.00D+00 RLast= 5.06D-03 DXMaxT set to 3.00D-01
 ITU=  1  0
     Eigenvalues ---    0.00567   0.01455   0.02312   0.02410   0.04342
     Eigenvalues ---    0.04615   0.04965   0.05370   0.05513   0.05723
     Eigenvalues ---    0.05927   0.06790   0.06895   0.08241   0.08772
     Eigenvalues ---    0.08928   0.09365   0.11007   0.11402   0.20424
     Eigenvalues ---    0.20703   0.26440   0.26846   0.27375   0.33550
     Eigenvalues ---    0.33722   0.34138   0.34224   0.34281   0.34295
     Eigenvalues ---    0.34324   0.34361   0.34372   0.35006   0.44082
     Eigenvalues --- 1000.000001000.000001000.000001000.000001000.00000
     Eigenvalues --- 1000.000001000.000001000.000001000.000001000.00000
     Eigenvalues --- 1000.000001000.000001000.000001000.000001000.00000
     Eigenvalues --- 1000.000001000.000001000.000001000.000001000.00000
     Eigenvalues --- 1000.000001000.000001000.000001000.000001000.00000
     Eigenvalues --- 1000.000001000.000001000.000001000.000001000.00000
     Eigenvalues --- 1000.000001000.000001000.000001000.000001000.00000
     Eigenvalues --- 1000.000001000.000001000.000001000.000001000.00000
     Eigenvalues --- 1000.000001000.000001000.000001000.000001000.00000
 En-DIIS/RFO-DIIS/Sim-DIIS IScMMF=       -3 using points:     2    1
 RFO step:  Lambda=-1.31000487D-07.
 DidBck=F Rises=F RFO-DIIS coefs:    0.99506    0.00494
 Iteration  1 RMS(Cart)=  0.00016829 RMS(Int)=  0.00000003
 Iteration  2 RMS(Cart)=  0.00000002 RMS(Int)=  0.00000002
 Iteration  1 RMS(Cart)=  0.00000000 RMS(Int)=  0.00000001
 Variable       Old X    -DE/DX   Delta X   Delta X   Delta X     New X
                                 (Linear)    (Quad)   (Total)
    R1        1.93199   0.00001   0.00000   0.00001   0.00001   1.93200
    R2        2.77707   0.00002  -0.00000   0.00008   0.00008   2.77715
    R3        2.77702   0.00001  -0.00001   0.00005   0.00004   2.77706
    R4        2.06686   0.00000   0.00001  -0.00007  -0.00006   2.06680
    R5        2.07132   0.00001  -0.00001   0.00007   0.00006   2.07138
    R6        2.92017  -0.00004   0.00000  -0.00015  -0.00015   2.92003
    R7        2.06840   0.00001   0.00000   0.00003   0.00003   2.06843
    R8        2.06765  -0.00000  -0.00000   0.00002   0.00001   2.06767
    R9        2.92460   0.00001  -0.00000   0.00005   0.00005   2.92464
   R10        2.06839   0.00001  -0.00000   0.00006   0.00005   2.06845
   R11        2.06763  -0.00000   0.00000  -0.00003  -0.00003   2.06760
   R12        2.92034  -0.00003   0.00000  -0.00015  -0.00014   2.92020
   R13        2.06688  -0.00001   0.00000  -0.00003  -0.00003   2.06685
   R14        2.07132   0.00000  -0.00000   0.00002   0.00002   2.07134
    A1        1.88090   0.00001  -0.00000   0.00008   0.00008   1.88098
    A2        1.88112  -0.00000   0.00000  -0.00014  -0.00014   1.88098
    A3        1.79293  -0.00002  -0.00000  -0.00014  -0.00014   1.79279
    A4        1.93105  -0.00001  -0.00000  -0.00008  -0.00008   1.93096
    A5        1.87760  -0.00001   0.00000  -0.00013  -0.00012   1.87748
    A6        1.86664   0.00003   0.00000   0.00010   0.00010   1.86674
    A7        1.87821   0.00001  -0.00000   0.00010   0.00010   1.87831
    A8        1.98391  -0.00001  -0.00000  -0.00000  -0.00000   1.98390
    A9        1.92410   0.00000   0.00000  -0.00001  -0.00000   1.92410
   A10        1.92618   0.00001   0.00000   0.00009   0.00009   1.92627
   A11        1.95620   0.00001  -0.00000   0.00017   0.00017   1.95637
   A12        1.81539  -0.00002  -0.00000  -0.00013  -0.00013   1.81526
   A13        1.86959  -0.00001   0.00000  -0.00004  -0.00004   1.86955
   A14        1.93272  -0.00000  -0.00000  -0.00009  -0.00009   1.93264
   A15        1.96484   0.00000   0.00000  -0.00000  -0.00000   1.96484
   A16        1.93284  -0.00002   0.00000  -0.00019  -0.00019   1.93265
   A17        1.96495  -0.00002  -0.00000  -0.00018  -0.00018   1.96477
   A18        1.81521   0.00002   0.00000   0.00009   0.00009   1.81530
   A19        1.86961   0.00000   0.00000  -0.00006  -0.00006   1.86955
   A20        1.92611   0.00002  -0.00000   0.00032   0.00031   1.92643
   A21        1.95617  -0.00000  -0.00000   0.00004   0.00004   1.95622
   A22        1.86688  -0.00000  -0.00000  -0.00007  -0.00007   1.86680
   A23        1.93127  -0.00003  -0.00000  -0.00030  -0.00030   1.93097
   A24        1.87769  -0.00002  -0.00000  -0.00025  -0.00025   1.87744
   A25        1.98367   0.00002  -0.00000   0.00021   0.00021   1.98387
   A26        1.92380   0.00002   0.00000   0.00030   0.00030   1.92410
   A27        1.87822  -0.00000   0.00000   0.00009   0.00009   1.87831
    D1       -0.85102  -0.00001   0.00000  -0.00035  -0.00035  -0.85137
    D2       -2.89816  -0.00001   0.00000  -0.00036  -0.00036  -2.89851
    D3        1.31814  -0.00001  -0.00000  -0.00034  -0.00034   1.31780
    D4       -2.83455   0.00000   0.00000  -0.00016  -0.00016  -2.83472
    D5        1.40150   0.00000   0.00000  -0.00017  -0.00017   1.40133
    D6       -0.66539  -0.00000  -0.00000  -0.00015  -0.00015  -0.66555
    D7       -1.31839  -0.00000   0.00000   0.00022   0.00022  -1.31817
    D8        0.85077   0.00001   0.00000   0.00024   0.00024   0.85101
    D9        2.89809  -0.00002  -0.00000   0.00004   0.00004   2.89812
   D10        0.66497  -0.00000   0.00000   0.00019   0.00020   0.66517
   D11        2.83413   0.00001   0.00000   0.00022   0.00022   2.83435
   D12       -1.40173  -0.00002  -0.00000   0.00001   0.00001  -1.40172
   D13       -1.66459   0.00001   0.00000   0.00013   0.00013  -1.66445
   D14        2.53639  -0.00000   0.00000   0.00001   0.00001   2.53640
   D15        0.40902  -0.00000   0.00000   0.00000   0.00000   0.40902
   D16        0.47186   0.00000  -0.00000   0.00010   0.00010   0.47196
   D17       -1.61034  -0.00001  -0.00000  -0.00003  -0.00003  -1.61037
   D18        2.54547  -0.00000  -0.00000  -0.00003  -0.00004   2.54544
   D19        2.58225   0.00001  -0.00000   0.00023   0.00023   2.58247
   D20        0.50004  -0.00000  -0.00000   0.00010   0.00010   0.50014
   D21       -1.62733   0.00000  -0.00000   0.00010   0.00009  -1.62724
   D22       -2.06971  -0.00002   0.00000  -0.00017  -0.00016  -2.06987
   D23        2.12085   0.00001  -0.00000   0.00017   0.00017   2.12102
   D24       -0.00070   0.00001   0.00000   0.00016   0.00016  -0.00053
   D25       -0.00058  -0.00001   0.00000  -0.00018  -0.00018  -0.00076
   D26       -2.09321   0.00001  -0.00000   0.00016   0.00016  -2.09305
   D27        2.06843   0.00001   0.00000   0.00015   0.00015   2.06858
   D28        2.09185  -0.00002   0.00001  -0.00029  -0.00028   2.09156
   D29       -0.00078   0.00000   0.00000   0.00005   0.00005  -0.00073
   D30       -2.12233   0.00000   0.00001   0.00004   0.00004  -2.12229
   D31       -0.40786  -0.00001  -0.00000  -0.00026  -0.00027  -0.40812
   D32       -2.54460   0.00001  -0.00000   0.00004   0.00004  -2.54457
   D33        1.62857  -0.00002  -0.00000  -0.00044  -0.00045   1.62812
   D34        1.66576  -0.00001  -0.00000  -0.00028  -0.00028   1.66548
   D35       -0.47098   0.00001   0.00000   0.00002   0.00002  -0.47096
   D36       -2.58099  -0.00002  -0.00000  -0.00046  -0.00047  -2.58146
   D37       -2.53524  -0.00000  -0.00000  -0.00012  -0.00013  -2.53537
   D38        1.61120   0.00002   0.00000   0.00018   0.00018   1.61138
   D39       -0.49881  -0.00001  -0.00000  -0.00031  -0.00031  -0.49912
         Item               Value     Threshold  Converged?
 Maximum Force            0.000038     0.000450     YES
 RMS     Force            0.000013     0.000300     YES
 Maximum Displacement     0.000682     0.001800     YES
 RMS     Displacement     0.000168     0.001200     YES
 Predicted change in Energy=-6.550414D-08
 Optimization completed.
    -- Stationary point found.
                           ----------------------------
                           !   Optimized Parameters   !
                           ! (Angstroms and Degrees)  !
 --------------------------                            --------------------------
 ! Name  Definition              Value          Derivative Info.                !
 --------------------------------------------------------------------------------
 ! R1    R(1,2)                  1.0224         -DE/DX =    0.0                 !
 ! R2    R(1,3)                  1.4696         -DE/DX =    0.0                 !
 ! R3    R(1,12)                 1.4695         -DE/DX =    0.0                 !
 ! R4    R(3,4)                  1.0937         -DE/DX =    0.0                 !
 ! R5    R(3,5)                  1.0961         -DE/DX =    0.0                 !
 ! R6    R(3,6)                  1.5453         -DE/DX =    0.0                 !
 ! R7    R(6,7)                  1.0946         -DE/DX =    0.0                 !
 ! R8    R(6,8)                  1.0942         -DE/DX =    0.0                 !
 ! R9    R(6,9)                  1.5476         -DE/DX =    0.0                 !
 ! R10   R(9,10)                 1.0945         -DE/DX =    0.0                 !
 ! R11   R(9,11)                 1.0941         -DE/DX =    0.0                 !
 ! R12   R(9,12)                 1.5454         -DE/DX =    0.0                 !
 ! R13   R(12,13)                1.0937         -DE/DX =    0.0                 !
 ! R14   R(12,14)                1.0961         -DE/DX =    0.0                 !
 ! A1    A(2,1,3)              107.7676         -DE/DX =    0.0                 !
 ! A2    A(2,1,12)             107.7801         -DE/DX =    0.0                 !
 ! A3    A(3,1,12)             102.7276         -DE/DX =    0.0                 !
 ! A4    A(1,3,4)              110.6408         -DE/DX =    0.0                 !
 ! A5    A(1,3,5)              107.5788         -DE/DX =    0.0                 !
 ! A6    A(1,3,6)              106.9507         -DE/DX =    0.0                 !
 ! A7    A(4,3,5)              107.6135         -DE/DX =    0.0                 !
 ! A8    A(4,3,6)              113.6694         -DE/DX =    0.0                 !
 ! A9    A(5,3,6)              110.2429         -DE/DX =    0.0                 !
 ! A10   A(3,6,7)              110.3617         -DE/DX =    0.0                 !
 ! A11   A(3,6,8)              112.0818         -DE/DX =    0.0                 !
 ! A12   A(3,6,9)              104.0142         -DE/DX =    0.0                 !
 ! A13   A(7,6,8)              107.1195         -DE/DX =    0.0                 !
 ! A14   A(7,6,9)              110.7368         -DE/DX =    0.0                 !
 ! A15   A(8,6,9)              112.5769         -DE/DX =    0.0                 !
 ! A16   A(6,9,10)             110.7436         -DE/DX =    0.0                 !
 ! A17   A(6,9,11)             112.5834         -DE/DX =    0.0                 !
 ! A18   A(6,9,12)             104.004          -DE/DX =    0.0                 !
 ! A19   A(10,9,11)            107.121          -DE/DX =    0.0                 !
 ! A20   A(10,9,12)            110.3582         -DE/DX =    0.0                 !
 ! A21   A(11,9,12)            112.0806         -DE/DX =    0.0                 !
 ! A22   A(1,12,9)             106.9641         -DE/DX =    0.0                 !
 ! A23   A(1,12,13)            110.6537         -DE/DX =    0.0                 !
 ! A24   A(1,12,14)            107.5839         -DE/DX =    0.0                 !
 ! A25   A(9,12,13)            113.6556         -DE/DX =    0.0                 !
 ! A26   A(9,12,14)            110.2254         -DE/DX =    0.0                 !
 ! A27   A(13,12,14)           107.6141         -DE/DX =    0.0                 !
 ! D1    D(2,1,3,4)            -48.7601         -DE/DX =    0.0                 !
 ! D2    D(2,1,3,5)           -166.0523         -DE/DX =    0.0                 !
 ! D3    D(2,1,3,6)             75.5236         -DE/DX =    0.0                 !
 ! D4    D(12,1,3,4)          -162.4078         -DE/DX =    0.0                 !
 ! D5    D(12,1,3,5)            80.3            -DE/DX =    0.0                 !
 ! D6    D(12,1,3,6)           -38.1242         -DE/DX =    0.0                 !
 ! D7    D(2,1,12,9)           -75.5384         -DE/DX =    0.0                 !
 ! D8    D(2,1,12,13)           48.7453         -DE/DX =    0.0                 !
 ! D9    D(2,1,12,14)          166.0483         -DE/DX =    0.0                 !
 ! D10   D(3,1,12,9)            38.1003         -DE/DX =    0.0                 !
 ! D11   D(3,1,12,13)          162.3839         -DE/DX =    0.0                 !
 ! D12   D(3,1,12,14)          -80.3131         -DE/DX =    0.0                 !
 ! D13   D(1,3,6,7)            -95.3738         -DE/DX =    0.0                 !
 ! D14   D(1,3,6,8)            145.3247         -DE/DX =    0.0                 !
 ! D15   D(1,3,6,9)             23.4353         -DE/DX =    0.0                 !
 ! D16   D(4,3,6,7)             27.0356         -DE/DX =    0.0                 !
 ! D17   D(4,3,6,8)            -92.2659         -DE/DX =    0.0                 !
 ! D18   D(4,3,6,9)            145.8447         -DE/DX =    0.0                 !
 ! D19   D(5,3,6,7)            147.9518         -DE/DX =    0.0                 !
 ! D20   D(5,3,6,8)             28.6503         -DE/DX =    0.0                 !
 ! D21   D(5,3,6,9)            -93.239          -DE/DX =    0.0                 !
 ! D22   D(3,6,9,10)          -118.5856         -DE/DX =    0.0                 !
 ! D23   D(3,6,9,11)           121.5159         -DE/DX =    0.0                 !
 ! D24   D(3,6,9,12)            -0.04           -DE/DX =    0.0                 !
 ! D25   D(7,6,9,10)            -0.0335         -DE/DX =    0.0                 !
 ! D26   D(7,6,9,11)          -119.9319         -DE/DX =    0.0                 !
 ! D27   D(7,6,9,12)           118.5121         -DE/DX =    0.0                 !
 ! D28   D(8,6,9,10)           119.854          -DE/DX =    0.0                 !
 ! D29   D(8,6,9,11)            -0.0445         -DE/DX =    0.0                 !
 ! D30   D(8,6,9,12)          -121.6004         -DE/DX =    0.0                 !
 ! D31   D(6,9,12,1)           -23.3685         -DE/DX =    0.0                 !
 ! D32   D(6,9,12,13)         -145.795          -DE/DX =    0.0                 !
 ! D33   D(6,9,12,14)           93.3103         -DE/DX =    0.0                 !
 ! D34   D(10,9,12,1)           95.4412         -DE/DX =    0.0                 !
 ! D35   D(10,9,12,13)         -26.9853         -DE/DX =    0.0                 !
 ! D36   D(10,9,12,14)        -147.88           -DE/DX =    0.0                 !
 ! D37   D(11,9,12,1)         -145.2586         -DE/DX =    0.0                 !
 ! D38   D(11,9,12,13)          92.3149         -DE/DX =    0.0                 !
 ! D39   D(11,9,12,14)         -28.5798         -DE/DX =    0.0                 !
 --------------------------------------------------------------------------------
 Iteration  1 RMS(Cart)=  0.01011514 RMS(Int)=  0.02649518
 Iteration  2 RMS(Cart)=  0.00183609 RMS(Int)=  0.02635236
 Iteration  3 RMS(Cart)=  0.00034295 RMS(Int)=  0.02633980
 Iteration  4 RMS(Cart)=  0.00006411 RMS(Int)=  0.02633795
 Iteration  5 RMS(Cart)=  0.00001199 RMS(Int)=  0.02633762
 Iteration  6 RMS(Cart)=  0.00000224 RMS(Int)=  0.02633756
 Iteration  7 RMS(Cart)=  0.00000042 RMS(Int)=  0.02633754
 Iteration  1 RMS(Cart)=  0.00995933 RMS(Int)=  0.02162910
 Iteration  2 RMS(Cart)=  0.00870246 RMS(Int)=  0.02302568
 Iteration  3 RMS(Cart)=  0.00699916 RMS(Int)=  0.02624402
 Iteration  4 RMS(Cart)=  0.00565147 RMS(Int)=  0.02980420
 Iteration  5 RMS(Cart)=  0.00457675 RMS(Int)=  0.03312331
 Iteration  6 RMS(Cart)=  0.00371460 RMS(Int)=  0.03602743
 Iteration  7 RMS(Cart)=  0.00301991 RMS(Int)=  0.03849681
 Iteration  8 RMS(Cart)=  0.00245825 RMS(Int)=  0.04056596
 Iteration  9 RMS(Cart)=  0.00200300 RMS(Int)=  0.04228552
 Iteration 10 RMS(Cart)=  0.00163328 RMS(Int)=  0.04370743
 Iteration 11 RMS(Cart)=  0.00133258 RMS(Int)=  0.04487949
 Iteration 12 RMS(Cart)=  0.00108774 RMS(Int)=  0.04584355
 Iteration 13 RMS(Cart)=  0.00088821 RMS(Int)=  0.04663536
 Iteration 14 RMS(Cart)=  0.00072548 RMS(Int)=  0.04728503
 Iteration 15 RMS(Cart)=  0.00059270 RMS(Int)=  0.04781765
 Iteration 16 RMS(Cart)=  0.00048431 RMS(Int)=  0.04825408
 Iteration 17 RMS(Cart)=  0.00039580 RMS(Int)=  0.04861154
 Iteration 18 RMS(Cart)=  0.00032350 RMS(Int)=  0.04890421
 Iteration 19 RMS(Cart)=  0.00026443 RMS(Int)=  0.04914378
 Iteration 20 RMS(Cart)=  0.00021617 RMS(Int)=  0.04933985
 Iteration 21 RMS(Cart)=  0.00017672 RMS(Int)=  0.04950028
 Iteration 22 RMS(Cart)=  0.00014448 RMS(Int)=  0.04963154
 Iteration 23 RMS(Cart)=  0.00011813 RMS(Int)=  0.04973893
 Iteration 24 RMS(Cart)=  0.00009659 RMS(Int)=  0.04982677
 Iteration 25 RMS(Cart)=  0.00007897 RMS(Int)=  0.04989863
 Iteration 26 RMS(Cart)=  0.00006457 RMS(Int)=  0.04995740
 Iteration 27 RMS(Cart)=  0.00005280 RMS(Int)=  0.05000547
 Iteration 28 RMS(Cart)=  0.00004318 RMS(Int)=  0.05004478
 Iteration 29 RMS(Cart)=  0.00003530 RMS(Int)=  0.05007694
 Iteration 30 RMS(Cart)=  0.00002887 RMS(Int)=  0.05010323
 Iteration 31 RMS(Cart)=  0.00002361 RMS(Int)=  0.05012474
 Iteration 32 RMS(Cart)=  0.00001930 RMS(Int)=  0.05014232
 Iteration 33 RMS(Cart)=  0.00001579 RMS(Int)=  0.05015671
 Iteration 34 RMS(Cart)=  0.00001291 RMS(Int)=  0.05016847
 Iteration 35 RMS(Cart)=  0.00001056 RMS(Int)=  0.05017809
 Iteration 36 RMS(Cart)=  0.00000863 RMS(Int)=  0.05018595
 Iteration 37 RMS(Cart)=  0.00000706 RMS(Int)=  0.05019238
 Iteration 38 RMS(Cart)=  0.00000577 RMS(Int)=  0.05019764
 Iteration 39 RMS(Cart)=  0.00000472 RMS(Int)=  0.05020195
 Iteration 40 RMS(Cart)=  0.00000386 RMS(Int)=  0.05020546
 Iteration 41 RMS(Cart)=  0.00000316 RMS(Int)=  0.05020834
 Iteration 42 RMS(Cart)=  0.00000258 RMS(Int)=  0.05021069
 Iteration 43 RMS(Cart)=  0.00000211 RMS(Int)=  0.05021262
 Iteration 44 RMS(Cart)=  0.00000173 RMS(Int)=  0.05021419
 Iteration 45 RMS(Cart)=  0.00000141 RMS(Int)=  0.05021548
 Iteration 46 RMS(Cart)=  0.00000115 RMS(Int)=  0.05021653
 Iteration 47 RMS(Cart)=  0.00000094 RMS(Int)=  0.05021739
 GradGradGradGradGradGradGradGradGradGradGradGradGradGradGradGradGradGrad

                          Input orientation:                          
 ---------------------------------------------------------------------
 Center     Atomic      Atomic             Coordinates (Angstroms)
 Number     Number       Type             X           Y           Z
 ---------------------------------------------------------------------
      1          7           0        0.813293    0.425627    0.855695
      2          1           0        1.312573    0.406725    1.747828
      3          6           0        1.694594    1.172423   -0.062735
      4          1           0        2.058019    2.133156    0.312948
      5          1           0        1.030959    1.373898   -0.911573
      6          6           0        2.745100    0.155891   -0.577844
      7          1           0        3.664644    0.358701   -0.019768
      8          1           0        2.981412    0.234383   -1.643305
      9          6           0        2.252246   -1.235474   -0.057989
     10          1           0        2.928129   -1.657722    0.692502
     11          1           0        2.183146   -1.961001   -0.874179
     12          6           0        0.815264   -0.950468    0.466799
     13          1           0        0.486052   -1.569340    1.306542
     14          1           0        0.101569   -1.099798   -0.351922
 ---------------------------------------------------------------------
                    Distance matrix (angstroms):
                    1          2          3          4          5
     1  N    0.000000
     2  H    1.022516   0.000000
     3  C    1.475774   2.002591   0.000000
     4  H    2.181645   2.365403   1.093720   0.000000
     5  H    2.017383   2.843791   1.096143   1.769400   0.000000
     6  C    2.420676   2.742955   1.549915   2.274899   2.129131
     7  H    2.983474   2.942608   2.131921   2.416740   2.960108
     8  H    3.313958   3.783452   2.243663   2.878354   2.374489
     9  C    2.380055   2.615488   2.471632   3.394553   3.004825
    10  H    2.973131   2.825894   3.178319   3.907929   3.919571
    11  H    3.250378   3.638536   3.273449   4.264628   3.528525
    12  C    1.429993   1.931405   2.358027   3.328189   2.710925
    13  H    2.071290   2.186940   3.294352   4.143282   3.725535
    14  H    2.071668   2.853961   2.790043   3.836891   2.701138
                    6          7          8          9         10
     6  C    0.000000
     7  H    1.094595   0.000000
     8  H    1.094172   1.765823   0.000000
     9  C    1.564945   2.130193   2.281533   0.000000
    10  H    2.221817   2.261801   3.006476   1.094691   0.000000
    11  H    2.210168   2.881991   2.459369   1.094226   1.761099
    12  C    2.457555   3.173268   3.247862   1.556132   2.239497
    13  H    3.410372   3.947137   4.264017   2.256735   2.519643
    14  H    2.935311   3.864330   3.426544   2.174905   3.064563
                   11         12         13         14
    11  H    0.000000
    12  C    2.165756   0.000000
    13  H    2.790891   1.093871   0.000000
    14  H    2.312441   1.096342   1.766013   0.000000
 Stoichiometry    C4H9N
 Framework group  C1[X(C4H9N)]
 Deg. of freedom    36
 Full point group                 C1      NOp   1
 Largest Abelian subgroup         C1      NOp   1
 Largest concise Abelian subgroup C1      NOp   1
                         Standard orientation:                         
 ---------------------------------------------------------------------
 Center     Atomic      Atomic             Coordinates (Angstroms)
 Number     Number       Type             X           Y           Z
 ---------------------------------------------------------------------
      1          7           0       -0.177773   -1.232807   -0.161479
      2          1           0       -0.253603   -1.257771   -1.180874
      3          6           0        1.128545   -0.602960    0.111898
      4          1           0        1.977715   -1.029222   -0.429799
      5          1           0        1.271282   -0.813697    1.178081
      6          6           0        0.902271    0.926872    0.008701
      7          1           0        1.303806    1.229437   -0.963597
      8          1           0        1.408307    1.522252    0.774641
      9          6           0       -0.647766    1.100005   -0.119598
     10          1           0       -0.939468    1.482519   -1.102930
     11          1           0       -1.030460    1.803182    0.626337
     12          6           0       -1.209783   -0.313941    0.206653
     13          1           0       -2.139552   -0.583412   -0.302727
     14          1           0       -1.393221   -0.383496    1.285299
 ---------------------------------------------------------------------
 Rotational constants (GHZ):           6.8549515           6.7170750           3.8654098
 Standard basis: 6-31G(d) (6D, 7F)
 There are    93 symmetry adapted cartesian basis functions of A   symmetry.
 There are    93 symmetry adapted basis functions of A   symmetry.
    93 basis functions,   176 primitive gaussians,    93 cartesian basis functions
    20 alpha electrons       20 beta electrons
       nuclear repulsion energy       189.9176644362 Hartrees.
 NAtoms=   14 NActive=   14 NUniq=   14 SFac= 1.00D+00 NAtFMM=   60 NAOKFM=F Big=F
 Integral buffers will be    131072 words long.
 Raffenetti 1 integral format.
 Two-electron integral symmetry is turned on.
 One-electron integrals computed using PRISM.
 NBasis=    93 RedAO= T EigKep=  3.28D-03  NBF=    93
 NBsUse=    93 1.00D-06 EigRej= -1.00D+00 NBFU=    93
 Initial guess from the checkpoint file:  "PRLD.scan4.neg.chk"
 B after Tr=    -0.000000   -0.000000    0.000000
         Rot=    0.997990   -0.002685   -0.002705    0.063264 Ang=  -7.27 deg.
 Keep R1 ints in memory in canonical form, NReq=10436256.
 Requested convergence on RMS density matrix=1.00D-08 within 128 cycles.
 Requested convergence on MAX density matrix=1.00D-06.
 Requested convergence on             energy=1.00D-06.
 No special actions if energy rises.
 SCF Done:  E(RHF) =  -211.131971900     A.U. after   11 cycles
            NFock= 11  Conv=0.70D-08     -V/T= 2.0013
 ExpMin= 1.61D-01 ExpMax= 4.17D+03 ExpMxC= 6.27D+02 IAcc=3 IRadAn=         5 AccDes= 0.00D+00
 HarFok:  IExCor=  205 AccDes= 0.00D+00 IRadAn=         5 IDoV=-2 UseB2=F ITyADJ=14
 ICtDFT= 12500011 ScaDFX=  1.000000  1.000000  1.000000  1.000000
 Range of M.O.s used for correlation:     6    93
 NBasis=    93 NAE=    20 NBE=    20 NFC=     5 NFV=     0
 NROrb=     88 NOA=    15 NOB=    15 NVA=    73 NVB=    73
 Fully direct method using O(ONN) memory.
 JobTyp=1 Pass  1:  I=   6 to  20 NPSUse=  1 ParTrn=F ParDer=F DoDerP=T.
 Spin components of T(2) and E(2):
     alpha-alpha T2 =       0.2792249584D-01 E2=     -0.8409864002D-01
     alpha-beta  T2 =       0.1681766150D+00 E2=     -0.5163369946D+00
     beta-beta   T2 =       0.2792249584D-01 E2=     -0.8409864002D-01
 ANorm=    0.1106355100D+01
 E2 =    -0.6845342746D+00 EUMP2 =    -0.21181650617506D+03
          IDoAtm=11111111111111
          Differentiating once with respect to electric field.
                with respect to dipole field.
          Differentiating once with respect to nuclear coordinates.
 Keep R1 ints in memory in canonical form, NReq=10438739.
          There are     1 degrees of freedom in the 1st order CPHF.  IDoFFX=0 NUNeed=     1.
 LinEq1:  Iter=  0 NonCon=     1 RMS=4.26D-03 Max=4.26D-02 NDo=     1
 AX will form     1 AO Fock derivatives at one time.
 LinEq1:  Iter=  1 NonCon=     1 RMS=1.41D-03 Max=1.16D-02 NDo=     1
 LinEq1:  Iter=  2 NonCon=     1 RMS=2.92D-04 Max=3.51D-03 NDo=     1
 LinEq1:  Iter=  3 NonCon=     1 RMS=5.61D-05 Max=4.33D-04 NDo=     1
 LinEq1:  Iter=  4 NonCon=     1 RMS=1.14D-05 Max=1.20D-04 NDo=     1
 LinEq1:  Iter=  5 NonCon=     1 RMS=3.44D-06 Max=3.87D-05 NDo=     1
 LinEq1:  Iter=  6 NonCon=     1 RMS=8.42D-07 Max=1.19D-05 NDo=     1
 LinEq1:  Iter=  7 NonCon=     1 RMS=1.48D-07 Max=1.38D-06 NDo=     1
 LinEq1:  Iter=  8 NonCon=     1 RMS=5.79D-08 Max=4.57D-07 NDo=     1
 LinEq1:  Iter=  9 NonCon=     1 RMS=1.45D-08 Max=1.34D-07 NDo=     1
 LinEq1:  Iter= 10 NonCon=     1 RMS=3.82D-09 Max=2.72D-08 NDo=     1
 LinEq1:  Iter= 11 NonCon=     1 RMS=6.60D-10 Max=7.95D-09 NDo=     1
 LinEq1:  Iter= 12 NonCon=     1 RMS=1.31D-10 Max=1.48D-09 NDo=     1
 LinEq1:  Iter= 13 NonCon=     0 RMS=3.40D-11 Max=3.08D-10 NDo=     1
 Linear equations converged to 1.000D-10 1.000D-09 after    13 iterations.
 End of Minotr F.D. properties file   721 does not exist.
 End of Minotr F.D. properties file   722 does not exist.
 End of Minotr F.D. properties file   788 does not exist.
 Calling FoFJK, ICntrl=  10002127 FMM=F ISym2X=0 I1Cent= 0 IOpClX= 0 NMat=1 NMatS=1 NMatT=0.
 ***** Axes restored to original set *****
 -------------------------------------------------------------------
 Center     Atomic                   Forces (Hartrees/Bohr)
 Number     Number              X              Y              Z
 -------------------------------------------------------------------
      1        7           0.008062865    0.030694707    0.035343434
      2        1          -0.004201373    0.006800190    0.005420185
      3        6          -0.026808478   -0.023722492   -0.033205757
      4        1           0.000617931   -0.005901363    0.005939534
      5        1           0.001975527    0.009665787   -0.002511937
      6        6           0.016418046   -0.001172582    0.032181917
      7        1           0.006358250    0.001256017   -0.006486834
      8        1          -0.005334964   -0.003202740    0.001052458
      9        6          -0.011545316   -0.001428767   -0.020562000
     10        1          -0.002641600    0.003423701    0.002205500
     11        1           0.004583289   -0.002248448   -0.000206590
     12        6           0.010763117   -0.012415817   -0.017524936
     13        1           0.002276860   -0.001562762   -0.000965327
     14        1          -0.000524158   -0.000185431   -0.000679646
 -------------------------------------------------------------------
 Cartesian Forces:  Max     0.035343434 RMS     0.013392045

 GradGradGradGradGradGradGradGradGradGradGradGradGradGradGradGradGradGrad
 Berny optimization.
 FormGI is forming the generalized inverse of G from B-inverse, IUseBI=4.
 Internal  Forces:  Max     0.026936734 RMS     0.005992593
 Search for a local minimum.
 Step number   1 out of a maximum of   90 on scan point     2 out of     7
 All quantities printed in internal units (Hartrees-Bohrs-Radians)
 Mixed Optimization -- RFO/linear search
 Second derivative matrix not updated -- first step.
 ITU=  0
     Eigenvalues ---    0.00562   0.01384   0.02265   0.02329   0.04061
     Eigenvalues ---    0.04439   0.05149   0.05470   0.05561   0.05913
     Eigenvalues ---    0.05960   0.06797   0.07055   0.08473   0.08733
     Eigenvalues ---    0.08855   0.09633   0.11066   0.11679   0.20960
     Eigenvalues ---    0.21245   0.26502   0.26973   0.27355   0.33679
     Eigenvalues ---    0.34012   0.34140   0.34227   0.34290   0.34299
     Eigenvalues ---    0.34354   0.34368   0.34419   0.35085   0.44080
     Eigenvalues --- 1000.000001000.000001000.000001000.000001000.00000
     Eigenvalues --- 1000.000001000.000001000.000001000.000001000.00000
     Eigenvalues --- 1000.000001000.000001000.000001000.000001000.00000
     Eigenvalues --- 1000.000001000.000001000.000001000.000001000.00000
     Eigenvalues --- 1000.000001000.000001000.000001000.000001000.00000
     Eigenvalues --- 1000.000001000.000001000.000001000.000001000.00000
     Eigenvalues --- 1000.000001000.000001000.000001000.000001000.00000
     Eigenvalues --- 1000.000001000.000001000.000001000.000001000.00000
     Eigenvalues --- 1000.000001000.000001000.000001000.000001000.00000
 RFO step:  Lambda=-1.32001349D-02 EMin= 5.62147194D-03
 Linear search not attempted -- first point.
 Iteration  1 RMS(Cart)=  0.05263227 RMS(Int)=  0.00183234
 Iteration  2 RMS(Cart)=  0.00174242 RMS(Int)=  0.00075849
[...]
           A25        113.65565 114.03306 114.43271 114.45816 113.13976
           A26        110.22541 110.36963 110.14646 109.77888 109.99995
           A27        107.61407 107.84018 107.82184 107.54205 107.19116
           D1         -48.76006 -40.74743 -27.71619  -8.96633  19.24175
           D2        -166.05226-157.60618-144.77029-127.03078-100.83202
           D3          75.52364  83.43855  95.33989 112.01911 137.93050
           D4        -162.40784-154.23669-141.44876-124.43164-101.37710
           D5          80.29995  88.90456 101.49714 117.50391 138.54912
           D6         -38.12415 -30.05071 -18.39269  -3.44621  17.31164
           D7         -75.53839 -73.41212 -77.52207 -88.33290-111.69243
           D8          48.74527  50.60405  46.51513  35.81095  11.59800
           D9         166.04829 168.42998 164.48897 153.66461 129.79840
           D10         38.10026  40.45311  36.75031  27.46574   8.85969
           D11        162.38392 164.46928 160.78750 151.60960 132.15012
           D12        -80.31306 -77.70479 -81.23865 -90.53675-109.64947
           D13        -95.37384-112.27256-128.79337-144.58106-159.14500
           D14        145.32466 128.27632 111.49072  95.43385  80.20468
           D15         23.43535   8.43482  -6.56520 -21.56501 -36.56393
           D16         27.03555   9.94054  -7.50442 -24.22025 -38.70261
           D17        -92.26594-109.51059-127.22033-144.20533-159.35293
           D18        145.84474 130.64791 114.72375  98.79581  83.87846
           D19        147.95183 130.22622 112.28553  95.24103  80.86431
           D20         28.65033  10.77510  -7.43038 -24.74406 -39.78601
           D21        -93.23899-109.06640-125.48630-141.74291-156.55462
           D22       -118.58559-101.18844 -88.54532 -79.51393 -75.79472
           D23        121.51593 138.39271 150.33447 158.82651 162.99305
           D24         -0.04001  15.47509  27.62927  36.82964  41.14779
           D25         -0.03346  19.73413  33.61579  42.77297  45.94087
           D26       -119.93194-100.68472 -87.50442 -78.88658 -75.27137
           D27        118.51213 136.39765 149.79038 159.11654 162.88337
           D28        119.85399 139.29942 153.28055 162.99739 167.36076
           D29         -0.04448  18.88057  32.16033  41.33784  46.14852
           D30       -121.60042-104.03706 -90.54486 -80.65904 -75.69674
           D31        -23.36849 -34.88524 -40.37742 -40.25788 -31.23225
           D32       -145.79502-156.79165-161.80368-161.66161-153.29224
           D33         93.31025  81.64876  76.54544  77.31134  86.86697
           D34         95.44122  82.66410  76.76363  76.55078  85.23371
           D35        -26.98530 -39.24232 -44.66263 -44.85296 -36.82628
           D36       -147.88003-160.80190-166.31351-165.88000-156.66707
           D37       -145.25859-157.49670-162.47681-161.91080-153.50050
           D38         92.31488  80.59689  76.09693  76.68547  84.43951
           D39        -28.57985 -40.96270 -45.55396 -44.34158 -35.40128
                           6         7
     Eigenvalues --    -0.82514  -0.81125
           R1           1.01945   1.02285
           R2           1.46615   1.46906
           R3           1.48537   1.52446
           R4           1.10412   1.10018
           R5           1.09506   1.09670
           R6           1.52132   1.52334
           R7           1.09461   1.09641
           R8           1.09289   1.08959
           R9           1.53165   1.52423
           R10          1.09420   1.09151
           R11          1.09355   1.09416
           R12          1.55195   1.57684
           R13          1.09988   1.09822
           R14          1.09493   1.09407
           A1         111.79653 111.17747
           A2         110.67044 108.02363
           A3         105.01226  99.10801
           A4         114.52420 115.88187
           A5         110.21695 109.96707
           A6          99.62432  96.32799
           A7         108.36342 108.59224
           A8         110.13397 111.53391
           A9         113.93125 114.30308
           A10        113.75846 114.45169
           A11        109.24530 109.64865
           A12         99.96922  96.04622
           A13        109.06067 109.85266
           A14        112.97643 113.16058
           A15        111.58617 113.11299
           A16        109.61505 110.78863
           A17        113.66070 115.38029
           A18        102.92993  98.18101
           A19        107.65375 108.63206
           A20        110.56560 112.22458
           A21        112.38788 111.41582
           A22        104.65859 105.26256
           A23        112.83778 111.92804
           A24        109.39619 109.23228
           A25        110.53200 111.36666
           A26        112.05006 111.18028
           A27        107.43566 107.88424
           D1          49.83911  51.13827
           D2         -72.64279 -72.45660
           D3         167.29824 168.80183
           D4         -70.21713 -62.32529
           D5         167.30097 174.07983
           D6          47.24200  55.33826
           D7        -144.60995-140.79995
           D8         -24.37641 -19.67175
           D9          95.15883  99.73819
           D10        -23.80879 -24.89277
           D11         96.42475  96.23543
           D12       -144.04001-144.35463
           D13       -172.25632 174.57795
           D14         65.62954  50.62739
           D15        -51.56527 -66.56407
           D16        -51.55423 -64.36391
           D17       -173.66837 171.68553
           D18         69.13682  54.49407
           D19         70.43843  59.29687
           D20        -51.67571 -64.65370
           D21       -168.87052 178.15485
           D22        -81.05780 -69.93088
           D23        158.43527 166.12734
           D24         36.61617  47.67035
           D25         40.19620  49.93950
           D26        -80.31073 -74.00228
           D27        157.87017 167.54073
           D28        163.50935 175.68519
           D29         43.00242  51.74340
           D30        -78.81668 -66.71358
           D31         -8.87233 -15.05707
           D32       -130.63212-136.55155
           D33        109.57231 103.10111
           D34        108.12913 101.43589
           D35        -13.63067 -20.05858
           D36       -133.42623-140.40592
           D37       -131.54883-136.49224
           D38        106.69138 102.01329
           D39        -13.10419 -18.33405
 GradGradGradGradGradGradGradGradGradGradGradGradGradGradGradGradGradGrad

                          Input orientation:                          
 ---------------------------------------------------------------------
 Center     Atomic      Atomic             Coordinates (Angstroms)
 Number     Number       Type             X           Y           Z
 ---------------------------------------------------------------------
      1          7           0        0.575422    0.457254    0.157872
      2          1           0       -0.012932    0.792673    0.924390
      3          6           0        1.919135    1.047460    0.222813
      4          1           0        2.432251    0.967895    1.192747
      5          1           0        1.878061    2.104828   -0.065333
      6          6           0        2.552961    0.137251   -0.821390
      7          1           0        3.586721    0.394797   -1.080475
      8          1           0        1.937667    0.127161   -1.720567
      9          6           0        2.441165   -1.145342   -0.005459
     10          1           0        3.127750   -1.125920    0.842845
     11          1           0        2.602060   -2.072189   -0.564256
     12          6           0        0.936386   -0.996420    0.441630
     13          1           0        0.806854   -1.251715    1.501883
     14          1           0        0.283500   -1.650732   -0.143700
 ---------------------------------------------------------------------
                    Distance matrix (angstroms):
                    1          2          3          4          5
     1  N    0.000000
     2  H    1.022847   0.000000
     3  C    1.469056   2.071234   0.000000
     4  H    2.186215   2.466097   1.100178   0.000000
     5  H    2.112153   2.505425   1.096695   1.783959   0.000000
     6  C    2.229802   3.171929   1.523344   2.182037   2.213248
     7  H    3.256583   4.139480   2.214808   2.613194   2.621877
     8  H    2.343759   3.353139   2.150353   3.072270   2.579635
     9  C    2.464952   3.262379   2.265614   2.429310   3.299132
    10  H    3.080586   3.681241   2.562962   2.233878   3.581095
    11  H    3.320664   4.154718   3.289084   3.515395   4.268556
    12  C    1.524461   2.082094   2.278403   2.580759   3.280472
    13  H    2.186436   2.277075   2.856466   2.768420   3.856168
    14  H    2.149364   2.683079   3.176456   3.641486   4.080807
                    6          7          8          9         10
     6  C    0.000000
     7  H    1.096410   0.000000
     8  H    1.089591   1.789058   0.000000
     9  C    1.524234   2.199997   2.194167   0.000000
    10  H    2.166947   2.494473   3.091535   1.091510   0.000000
    11  H    2.224895   2.705931   2.572084   1.094160   1.775304
    12  C    2.343874   3.358060   2.634406   1.576840   2.231551
    13  H    3.221137   4.136090   3.682964   2.225841   2.415930
    14  H    2.967592   3.996624   2.895458   2.220371   3.055888
                   11         12         13         14
    11  H    0.000000
    12  C    2.223410   0.000000
    13  H    2.857424   1.098222   0.000000
    14  H    2.393786   1.094073   1.772303   0.000000
 Stoichiometry    C4H9N
 Framework group  C1[X(C4H9N)]
 Deg. of freedom    36
 Full point group                 C1      NOp   1
 Largest Abelian subgroup         C1      NOp   1
 Largest concise Abelian subgroup C1      NOp   1
                         Standard orientation:                         
 ---------------------------------------------------------------------
 Center     Atomic      Atomic             Coordinates (Angstroms)
 Number     Number       Type             X           Y           Z
 ---------------------------------------------------------------------
      1          7           0       -1.209014    0.156633    0.317187
      2          1           0       -2.080729    0.424026   -0.146310
      3          6           0       -0.573475   -0.980033   -0.362671
      4          1           0       -0.439444   -0.875635   -1.449652
      5          1           0       -1.140426   -1.898163   -0.166855
      6          6           0        0.756397   -0.894932    0.375418
      7          1           0        1.455765   -1.707466    0.145661
      8          1           0        0.577352   -0.853419    1.449395
      9          6           0        1.180902    0.445682   -0.212661
     10          1           0        1.423236    0.344660   -1.272125
     11          1           0        2.019014    0.935117    0.292520
     12          6           0       -0.167759    1.229300    0.018597
     13          1           0       -0.437664    1.829406   -0.860672
     14          1           0       -0.090398    1.904947    0.875633
 ---------------------------------------------------------------------
 Rotational constants (GHZ):           7.1175900           6.6696255           4.1650742

 **********************************************************************

            Population analysis using the SCF density.

 **********************************************************************

 Orbital symmetries:
       Occupied  (A) (A) (A) (A) (A) (A) (A) (A) (A) (A) (A) (A)
                 (A) (A) (A) (A) (A) (A) (A) (A)
       Virtual   (A) (A) (A) (A) (A) (A) (A) (A) (A) (A) (A) (A)
                 (A) (A) (A) (A) (A) (A) (A) (A) (A) (A) (A) (A)
                 (A) (A) (A) (A) (A) (A) (A) (A) (A) (A) (A) (A)
                 (A) (A) (A) (A) (A) (A) (A) (A) (A) (A) (A) (A)
                 (A) (A) (A) (A) (A) (A) (A) (A) (A) (A) (A) (A)
                 (A) (A) (A) (A) (A) (A) (A) (A) (A) (A) (A) (A)
                 (A)
 The electronic state is 1-A.
 Alpha  occ. eigenvalues --  -15.54387 -11.24646 -11.24054 -11.22160 -11.21255
 Alpha  occ. eigenvalues --   -1.21329  -1.02536  -0.95648  -0.80140  -0.78711
 Alpha  occ. eigenvalues --   -0.68163  -0.65492  -0.57936  -0.55392  -0.51410
 Alpha  occ. eigenvalues --   -0.49387  -0.47924  -0.46766  -0.45323  -0.37330
 Alpha virt. eigenvalues --    0.22595   0.26276   0.27384   0.29569   0.30912
 Alpha virt. eigenvalues --    0.32543   0.33201   0.34083   0.36887   0.38460
 Alpha virt. eigenvalues --    0.39212   0.41200   0.43892   0.47468   0.72125
 Alpha virt. eigenvalues --    0.74333   0.78528   0.79347   0.80137   0.85584
 Alpha virt. eigenvalues --    0.90763   0.93400   0.94048   0.95816   1.03309
 Alpha virt. eigenvalues --    1.06960   1.10636   1.11056   1.13055   1.15690
 Alpha virt. eigenvalues --    1.16105   1.17399   1.19394   1.21573   1.22780
 Alpha virt. eigenvalues --    1.23602   1.25317   1.29619   1.49513   1.52960
 Alpha virt. eigenvalues --    1.56538   1.64781   1.75935   1.87251   1.93282
 Alpha virt. eigenvalues --    2.07460   2.10456   2.13127   2.18677   2.19261
 Alpha virt. eigenvalues --    2.30236   2.31717   2.35641   2.40524   2.44389
 Alpha virt. eigenvalues --    2.49280   2.52725   2.60376   2.64459   2.73660
 Alpha virt. eigenvalues --    2.75523   2.79145   2.83651   2.85879   2.98336
 Alpha virt. eigenvalues --    3.03182   3.05226   3.21762   4.38208   4.63603
 Alpha virt. eigenvalues --    4.68224   4.90185   5.01135
          Condensed to atoms (all electrons):
               1          2          3          4          5          6
     1  N    7.138578   0.323336   0.271832  -0.046642  -0.037759  -0.106431
     2  H    0.323336   0.409714  -0.033576  -0.003959  -0.000689   0.007388
     3  C    0.271832  -0.033576   5.033457   0.399211   0.400801   0.342844
     4  H   -0.046642  -0.003959   0.399211   0.595025  -0.036119  -0.044644
     5  H   -0.037759  -0.000689   0.400801  -0.036119   0.526057  -0.027848
     6  C   -0.106431   0.007388   0.342844  -0.044644  -0.027848   5.158785
     7  H    0.004845  -0.000169  -0.034284   0.001242  -0.001074   0.392228
     8  H   -0.002912   0.000084  -0.038787   0.004056  -0.002087   0.403966
     9  C   -0.048519   0.004507  -0.100966  -0.013097   0.006170   0.341428
    10  H    0.002362  -0.000168  -0.005347   0.000647   0.000038  -0.041842
    11  H    0.001980  -0.000036   0.006999   0.000165  -0.000106  -0.030575
    12  C    0.274217  -0.034700  -0.096733  -0.001668   0.006292  -0.088962
    13  H   -0.041960  -0.005918   0.000385   0.003083  -0.000240   0.006160
    14  H   -0.043247   0.002288   0.005934  -0.000311  -0.000106   0.000118
               7          8          9         10         11         12
     1  N    0.004845  -0.002912  -0.048519   0.002362   0.001980   0.274217
     2  H   -0.000169   0.000084   0.004507  -0.000168  -0.000036  -0.034700
     3  C   -0.034284  -0.038787  -0.100966  -0.005347   0.006999  -0.096733
     4  H    0.001242   0.004056  -0.013097   0.000647   0.000165  -0.001668
     5  H   -0.001074  -0.002087   0.006170   0.000038  -0.000106   0.006292
     6  C    0.392228   0.403966   0.341428  -0.041842  -0.030575  -0.088962
     7  H    0.535700  -0.022687  -0.035586  -0.002714  -0.000856   0.005934
     8  H   -0.022687   0.498661  -0.035030   0.003267  -0.002110  -0.002070
     9  C   -0.035586  -0.035030   5.162250   0.402973   0.398159   0.348132
    10  H   -0.002714   0.003267   0.402973   0.537406  -0.026210  -0.035884
    11  H   -0.000856  -0.002110   0.398159  -0.026210   0.516338  -0.033174
    12  C    0.005934  -0.002070   0.348132  -0.035884  -0.033174   5.005100
    13  H   -0.000085   0.000136  -0.040758  -0.005123   0.001824   0.396583
    14  H   -0.000134   0.000258  -0.033391   0.002935  -0.003517   0.400434
              13         14
     1  N   -0.041960  -0.043247
     2  H   -0.005918   0.002288
     3  C    0.000385   0.005934
     4  H    0.003083  -0.000311
     5  H   -0.000240  -0.000106
     6  C    0.006160   0.000118
     7  H   -0.000085  -0.000134
     8  H    0.000136   0.000258
     9  C   -0.040758  -0.033391
    10  H   -0.005123   0.002935
    11  H    0.001824  -0.003517
    12  C    0.396583   0.400434
    13  H    0.571743  -0.035237
    14  H   -0.035237   0.532798
 Mulliken charges:
               1
     1  N   -0.689682
     2  H    0.331899
     3  C   -0.151770
     4  H    0.143012
     5  H    0.166671
     6  C   -0.312615
     7  H    0.157641
     8  H    0.195254
     9  C   -0.356273
    10  H    0.167658
    11  H    0.171120
    12  C   -0.143502
    13  H    0.149407
    14  H    0.171178
 Sum of Mulliken charges =  -0.00000
 Mulliken charges with hydrogens summed into heavy atoms:
               1
     1  N   -0.357782
     3  C    0.157913
     6  C    0.040281
     9  C   -0.017495
    12  C    0.177084
 Electronic spatial extent (au):  <R**2>=            379.5928
 Charge=             -0.0000 electrons
 Dipole moment (field-independent basis, Debye):
    X=              0.2901    Y=              0.2655    Z=             -1.3659  Tot=              1.4214
 Quadrupole moment (field-independent basis, Debye-Ang):
   XX=            -32.0659   YY=            -31.9407   ZZ=            -33.4398
   XY=             -0.3138   XZ=              2.3869   YZ=              0.0450
 Traceless Quadrupole moment (field-independent basis, Debye-Ang):
   XX=              0.4162   YY=              0.5414   ZZ=             -0.9577
   XY=             -0.3138   XZ=              2.3869   YZ=              0.0450
 Octapole moment (field-independent basis, Debye-Ang**2):
  XXX=             -7.0735  YYY=              0.2694  ZZZ=             -1.2012  XYY=             -1.7353
  XXY=              1.5056  XXZ=             -3.6256  XZZ=              1.7110  YZZ=              0.5051
  YYZ=              0.5957  XYZ=              0.8658
 Hexadecapole moment (field-independent basis, Debye-Ang**3):
 XXXX=           -202.5289 YYYY=           -214.2511 ZZZZ=            -78.5332 XXXY=             -3.2850
 XXXZ=              7.1783 YYYX=             -0.0232 YYYZ=              1.0630 ZZZX=              2.0566
 ZZZY=             -0.4666 XXYY=            -69.2620 XXZZ=            -52.5440 YYZZ=            -48.5353
 XXYZ=              0.0895 YYXZ=              0.3420 ZZXY=             -0.3348
 N-N= 1.915191904741D+02 E-N=-8.750983788636D+02  KE= 2.108124684489D+02
 1\1\GINC-C401-054\Scan\RMP2-FC\6-31G(d)\C4H9N1\TG455515\02-Apr-2021\0\
 \# opt=modredundant MP2/6-31g(d) Geom=PrintInputOrient\\PRLD Dihedral/
 Improper Scan\\0,1\N,0.5754215939,0.4572538656,0.1578717036\H,-0.01293
 20525,0.7926730721,0.9243900298\C,1.9191346856,1.0474602925,0.22281275
 02\H,2.4322506955,0.9678947,1.1927471214\H,1.8780607403,2.1048275311,-
 0.0653334488\C,2.5529614719,0.137251497,-0.821389952\H,3.5867213658,0.
 3947966619,-1.0804754517\H,1.937666788,0.1271609776,-1.7205668264\C,2.
 4411648102,-1.1453422692,-0.0054587247\H,3.1277499016,-1.1259204127,0.
 842844512\H,2.602059698,-2.0721891925,-0.5642556546\C,0.9363862324,-0.
 9964199624,0.4416301106\H,0.8068535334,-1.2517151099,1.5018834805\H,0.
 283500135,-1.6507316207,-0.1436996859\\Version=ES64L-G16RevA.03\State=
 1-A\HF=-211.1432102,-211.143101,-211.1427809,-211.1424817,-211.1428263
 ,-211.1410792,-211.1236397\MP2=-211.8273514,-211.8273389,-211.8270227,
 -211.8263743,-211.8259418,-211.8251446,-211.8112502\RMSD=8.975e-09,2.6
 56e-09,4.116e-09,2.926e-09,1.871e-09,4.574e-09,9.130e-09\PG=C01 [X(C4H
 9N1)]\\@


 SUCCESS IS NEVER CERTAIN,
 FAILURE IS NEVER FINAL.
 Job cpu time:       0 days  0 hours 18 minutes  7.4 seconds.
 Elapsed time:       0 days  0 hours 17 minutes 53.7 seconds.
 File lengths (MBytes):  RWF=     10 Int=      0 D2E=      0 Chk=      3 Scr=      1
 Normal termination of Gaussian 16 at Fri Apr  2 19:43:44 2021.
