 Entering Gaussian System, Link 0=g16
 Initial command:
 /home1/apps/gaussian/16rA.03/g16/l1.exe "/tmp/Gau-16536.inp" -scrdir="/tmp/"
 Entering Link 1 = /home1/apps/gaussian/16rA.03/g16/l1.exe PID=     16537.
  
 Copyright (c) 1988,1990,1992,1993,1995,1998,2003,2009,2016,
            Gaussian, Inc.  All Rights Reserved.
  
 This is part of the Gaussian(R) 16 program.  It is based on
 the Gaussian(R) 09 system (copyright 2009, Gaussian, Inc.),
 the Gaussian(R) 03 system (copyright 2003, Gaussian, Inc.),
 the Gaussian(R) 98 system (copyright 1998, Gaussian, Inc.),
 the Gaussian(R) 94 system (copyright 1995, Gaussian, Inc.),
 the Gaussian 92(TM) system (copyright 1992, Gaussian, Inc.),
 the Gaussian 90(TM) system (copyright 1990, Gaussian, Inc.),
 the Gaussian 88(TM) system (copyright 1988, Gaussian, Inc.),
 the Gaussian 86(TM) system (copyright 1986, Carnegie Mellon
 University), and the Gaussian 82(TM) system (copyright 1983,
 Carnegie Mellon University). Gaussian is a federally registered
 trademark of Gaussian, Inc.
  
 This software contains proprietary and confidential information,
 including trade secrets, belonging to Gaussian, Inc.
  
 This software is provided under written license and may be
 used, copied, transmitted, or stored only in accord with that
 written license.
  
 The following legend is applicable only to US Government
 contracts under FAR:
  
                    RESTRICTED RIGHTS LEGEND
  
 Use, reproduction and disclosure by the US Government is
 subject to restrictions as set forth in subparagraphs (a)
 and (c) of the Commercial Computer Software - Restricted
 Rights clause in FAR 52.227-19.
  
 Gaussian, Inc.
 340 Quinnipiac St., Bldg. 40, Wallingford CT 06492
  
  
 ---------------------------------------------------------------
 Warning -- This program may not be used in any manner that
 competes with the business of Gaussian, Inc. or will provide
 assistance to any competitor of Gaussian, Inc.  The licensee
 of this program is prohibited from giving any competitor of
 Gaussian, Inc. access to this program.  By using this program,
 the user acknowledges that Gaussian, Inc. is engaged in the
 business of creating and licensing software in the field of
 computational chemistry and represents and warrants to the
 licensee that it is not a competitor of Gaussian, Inc. and that
 it will not use this program in any manner prohibited above.
 ---------------------------------------------------------------
  

 Cite this work as:
 Gaussian 16, Revision A.03,
 M. J. Frisch, G. W. Trucks, H. B. Schlegel, G. E. Scuseria, 
 M. A. Robb, J. R. Cheeseman, G. Scalmani, V. Barone, 
 G. A. Petersson, H. Nakatsuji, X. Li, M. Caricato, A. V. Marenich, 
 J. Bloino, B. G. Janesko, R. Gomperts, B. Mennucci, H. P. Hratchian, 
 J. V. Ortiz, A. F. Izmaylov, J. L. Sonnenberg, D. Williams-Young, 
 F. Ding, F. Lipparini, F. Egidi, J. Goings, B. Peng, A. Petrone, 
 T. Henderson, D. Ranasinghe, V. G. Zakrzewski, J. Gao, N. Rega, 
 G. Zheng, W. Liang, M. Hada, M. Ehara, K. Toyota, R. Fukuda, 
 J. Hasegawa, M. Ishida, T. Nakajima, Y. Honda, O. Kitao, H. Nakai, 
 T. Vreven, K. Throssell, J. A. Montgomery, Jr., J. E. Peralta, 
 F. Ogliaro, M. J. Bearpark, J. J. Heyd, E. N. Brothers, K. N. Kudin, 
 V. N. Staroverov, T. A. Keith, R. Kobayashi, J. Normand, 
 K. Raghavachari, A. P. Rendell, J. C. Burant, S. S. Iyengar, 
 J. Tomasi, M. Cossi, J. M. Millam, M. Klene, C. Adamo, R. Cammi, 
 J. W. Ochterski, R. L. Martin, K. Morokuma, O. Farkas, 
 J. B. Foresman, and D. J. Fox, Gaussian, Inc., Wallingford CT, 2016.
 
 ******************************************
 Gaussian 16:  ES64L-G16RevA.03 25-Dec-2016
                 2-Apr-2021 
 ******************************************
 %chk=PRLD.scan3.neg.chk
 %nproc=1
 Will use up to    1 processors via shared memory.
 %mem=1GB
 -----------------------------------------------------
 # opt=modredundant MP2/6-31g(d) Geom=PrintInputOrient
 -----------------------------------------------------
 1/18=120,19=15,38=1/1,3;
 2/9=2110,12=2,17=6,18=5,40=1/2;
 3/5=1,6=6,7=1,11=9,25=1,30=1,71=1/1,2,3;
 4//1;
 5/5=2,38=5/2;
 8/6=4,10=2/1;
 9/15=2,16=-3/6;
 10/5=1/2;
 6/7=2,8=2,9=2,10=2/1;
 7/12=2/1,2,3,16;
 1/18=20,19=15/3(2);
 2/9=2110/2;
 99//99;
 2/9=2110/2;
 3/5=1,6=6,7=1,11=9,25=1,30=1,71=1/1,2,3;
 4/5=5,16=3,69=1/1;
 5/5=2,38=5/2;
 8/6=4,10=2/1;
 9/15=2,16=-3/6;
 10/5=1/2;
 7/12=2/1,2,3,16;
 1/18=20,19=15/3(-8);
 2/9=2110/2;
 6/7=2,8=2,9=2,10=2/1;
 99//99;
 ---------------------------
 PRLD Dihedral/Improper Scan
 ---------------------------
 Symbolic Z-matrix:
 Charge =  0 Multiplicity = 1
 N1                    0.844     0.456     0.923 
 H2                    1.372     0.495     1.798 
 C3                    1.643     1.125    -0.113 
 H4                    2.        2.097     0.243 
 H5                    0.987     1.307    -0.971 
 C6                    2.779     0.153    -0.504 
 H7                    3.689     0.384     0.059 
 H8                    3.031     0.222    -1.566 
 C9                    2.231    -1.24     -0.112 
 H10                   2.866    -1.707     0.647 
 H11                   2.185    -1.928    -0.962 
 C12                   0.83     -0.941     0.469 
 H13                   0.542    -1.609     1.286 
 H14                   0.068    -1.027    -0.314 
 
 The following ModRedundant input section has been read:
 D       3       1      12       9 S   6 -15.00                                
 

 GradGradGradGradGradGradGradGradGradGradGradGradGradGradGradGradGradGrad
 Berny optimization.
 Initialization pass.
                           ----------------------------
                           !    Initial Parameters    !
                           ! (Angstroms and Degrees)  !
 --------------------------                            --------------------------
 ! Name  Definition              Value          Derivative Info.                !
 --------------------------------------------------------------------------------
 ! R1    R(1,2)                  1.0227         estimate D2E/DX2                !
 ! R2    R(1,3)                  1.4694         estimate D2E/DX2                !
 ! R3    R(1,12)                 1.469          estimate D2E/DX2                !
 ! R4    R(3,4)                  1.095          estimate D2E/DX2                !
 ! R5    R(3,5)                  1.0953         estimate D2E/DX2                !
 ! R6    R(3,6)                  1.5454         estimate D2E/DX2                !
 ! R7    R(6,7)                  1.0947         estimate D2E/DX2                !
 ! R8    R(6,8)                  1.0937         estimate D2E/DX2                !
 ! R9    R(6,9)                  1.5474         estimate D2E/DX2                !
 ! R10   R(9,10)                 1.0943         estimate D2E/DX2                !
 ! R11   R(9,11)                 1.0945         estimate D2E/DX2                !
 ! R12   R(9,12)                 1.5459         estimate D2E/DX2                !
 ! R13   R(12,13)                1.0939         estimate D2E/DX2                !
 ! R14   R(12,14)                1.096          estimate D2E/DX2                !
 ! A1    A(2,1,3)              107.7654         estimate D2E/DX2                !
 ! A2    A(2,1,12)             107.7946         estimate D2E/DX2                !
 ! A3    A(3,1,12)             102.7239         estimate D2E/DX2                !
 ! A4    A(1,3,4)              110.6221         estimate D2E/DX2                !
 ! A5    A(1,3,5)              107.5946         estimate D2E/DX2                !
 ! A6    A(1,3,6)              106.9617         estimate D2E/DX2                !
 ! A7    A(4,3,5)              107.6053         estimate D2E/DX2                !
 ! A8    A(4,3,6)              113.6363         estimate D2E/DX2                !
 ! A9    A(5,3,6)              110.279          estimate D2E/DX2                !
 ! A10   A(3,6,7)              110.3782         estimate D2E/DX2                !
 ! A11   A(3,6,8)              112.0481         estimate D2E/DX2                !
 ! A12   A(3,6,9)              103.9924         estimate D2E/DX2                !
 ! A13   A(7,6,8)              107.1301         estimate D2E/DX2                !
 ! A14   A(7,6,9)              110.7358         estimate D2E/DX2                !
 ! A15   A(8,6,9)              112.6059         estimate D2E/DX2                !
 ! A16   A(6,9,10)             110.7565         estimate D2E/DX2                !
 ! A17   A(6,9,11)             112.5829         estimate D2E/DX2                !
 ! A18   A(6,9,12)             104.0073         estimate D2E/DX2                !
 ! A19   A(10,9,11)            107.145          estimate D2E/DX2                !
 ! A20   A(10,9,12)            110.3511         estimate D2E/DX2                !
 ! A21   A(11,9,12)            112.0469         estimate D2E/DX2                !
 ! A22   A(1,12,9)             106.9451         estimate D2E/DX2                !
 ! A23   A(1,12,13)            110.635          estimate D2E/DX2                !
 ! A24   A(1,12,14)            107.581          estimate D2E/DX2                !
 ! A25   A(9,12,13)            113.6523         estimate D2E/DX2                !
 ! A26   A(9,12,14)            110.2689         estimate D2E/DX2                !
 ! A27   A(13,12,14)           107.615          estimate D2E/DX2                !
 ! D1    D(2,1,3,4)            -48.7385         estimate D2E/DX2                !
 ! D2    D(2,1,3,5)           -166.0198         estimate D2E/DX2                !
 ! D3    D(2,1,3,6)             75.4998         estimate D2E/DX2                !
 ! D4    D(12,1,3,4)          -162.4            estimate D2E/DX2                !
 ! D5    D(12,1,3,5)            80.3186         estimate D2E/DX2                !
 ! D6    D(12,1,3,6)           -38.1617         estimate D2E/DX2                !
 ! D7    D(2,1,12,9)           -75.5014         estimate D2E/DX2                !
 ! D8    D(2,1,12,13)           48.7538         estimate D2E/DX2                !
 ! D9    D(2,1,12,14)          166.0459         estimate D2E/DX2                !
 ! D10   D(3,1,12,9)            38.1387         Scan                            !
 ! D11   D(3,1,12,13)          162.3939         estimate D2E/DX2                !
 ! D12   D(3,1,12,14)          -80.314          estimate D2E/DX2                !
 ! D13   D(1,3,6,7)            -95.3684         estimate D2E/DX2                !
 ! D14   D(1,3,6,8)            145.3276         estimate D2E/DX2                !
 ! D15   D(1,3,6,9)             23.4354         estimate D2E/DX2                !
 ! D16   D(4,3,6,7)             27.004          estimate D2E/DX2                !
 ! D17   D(4,3,6,8)            -92.2999         estimate D2E/DX2                !
 ! D18   D(4,3,6,9)            145.8078         estimate D2E/DX2                !
 ! D19   D(5,3,6,7)            147.9132         estimate D2E/DX2                !
 ! D20   D(5,3,6,8)             28.6092         estimate D2E/DX2                !
 ! D21   D(5,3,6,9)            -93.2831         estimate D2E/DX2                !
 ! D22   D(3,6,9,10)          -118.5629         estimate D2E/DX2                !
 ! D23   D(3,6,9,11)           121.4993         estimate D2E/DX2                !
 ! D24   D(3,6,9,12)            -0.0176         estimate D2E/DX2                !
 ! D25   D(7,6,9,10)            -0.0044         estimate D2E/DX2                !
 ! D26   D(7,6,9,11)          -119.9421         estimate D2E/DX2                !
 ! D27   D(7,6,9,12)           118.541          estimate D2E/DX2                !
 ! D28   D(8,6,9,10)           119.9156         estimate D2E/DX2                !
 ! D29   D(8,6,9,11)            -0.0222         estimate D2E/DX2                !
 ! D30   D(8,6,9,12)          -121.5391         estimate D2E/DX2                !
 ! D31   D(6,9,12,1)           -23.4104         estimate D2E/DX2                !
 ! D32   D(6,9,12,13)         -145.7976         estimate D2E/DX2                !
 ! D33   D(6,9,12,14)           93.2771         estimate D2E/DX2                !
 ! D34   D(10,9,12,1)           95.4127         estimate D2E/DX2                !
 ! D35   D(10,9,12,13)         -26.9744         estimate D2E/DX2                !
 ! D36   D(10,9,12,14)        -147.8998         estimate D2E/DX2                !
 ! D37   D(11,9,12,1)         -145.2836         estimate D2E/DX2                !
 ! D38   D(11,9,12,13)          92.3293         estimate D2E/DX2                !
 ! D39   D(11,9,12,14)         -28.5961         estimate D2E/DX2                !
 --------------------------------------------------------------------------------
 Trust Radius=3.00D-01 FncErr=1.00D-07 GrdErr=1.00D-07 EigMax=2.50D+02 EigMin=1.00D-04
 Number of optimizations in scan=   7
 Number of steps in this run=     90 maximum allowed number of steps=    100.
 GradGradGradGradGradGradGradGradGradGradGradGradGradGradGradGradGradGrad

                          Input orientation:                          
 ---------------------------------------------------------------------
 Center     Atomic      Atomic             Coordinates (Angstroms)
 Number     Number       Type             X           Y           Z
 ---------------------------------------------------------------------
      1          7           0        0.844000    0.456000    0.923000
      2          1           0        1.372000    0.495000    1.798000
      3          6           0        1.643000    1.125000   -0.113000
      4          1           0        2.000000    2.097000    0.243000
      5          1           0        0.987000    1.307000   -0.971000
      6          6           0        2.779000    0.153000   -0.504000
      7          1           0        3.689000    0.384000    0.059000
      8          1           0        3.031000    0.222000   -1.566000
      9          6           0        2.231000   -1.240000   -0.112000
     10          1           0        2.866000   -1.707000    0.647000
     11          1           0        2.185000   -1.928000   -0.962000
     12          6           0        0.830000   -0.941000    0.469000
     13          1           0        0.542000   -1.609000    1.286000
     14          1           0        0.068000   -1.027000   -0.314000
 ---------------------------------------------------------------------
                    Distance matrix (angstroms):
                    1          2          3          4          5
     1  N    0.000000
     2  H    1.022707   0.000000
     3  C    1.469441   2.030335   0.000000
     4  H    2.119343   2.319227   1.094974   0.000000
     5  H    2.081318   2.911173   1.095274   1.767502   0.000000
     6  C    2.423296   2.719525   1.545368   2.223508   2.181987
     7  H    2.974173   2.899126   2.182838   2.412664   3.035397
     8  H    3.321573   3.760759   2.202989   2.801975   2.389390
     9  C    2.423099   2.719597   2.437000   3.363771   2.961862
    10  H    2.973757   2.899248   3.177035   3.922192   3.902917
    11  H    3.321891   3.761582   3.214868   4.205577   3.449712
    12  C    1.468986   2.030296   2.295223   3.263345   2.674276
    13  H    2.118301   2.319021   3.262539   4.116801   3.714180
    14  H    2.081258   2.911605   2.674347   3.715138   2.593023
                    6          7          8          9         10
     6  C    0.000000
     7  H    1.094728   0.000000
     8  H    1.093668   1.760634   0.000000
     9  C    1.547390   2.189151   2.211687   0.000000
    10  H    2.189057   2.322790   2.940346   1.094255   0.000000
    11  H    2.212049   2.941054   2.388102   1.094514   1.761103
    12  C    2.437656   3.177673   3.215306   1.545886   2.182598
    13  H    3.363467   3.921886   4.204948   2.223350   2.412240
    14  H    2.962773   3.904061   3.450634   2.182829   3.035577
                   11         12         13         14
    11  H    0.000000
    12  C    2.204077   0.000000
    13  H    2.802626   1.093918   0.000000
    14  H    2.390271   1.095960   1.767314   0.000000
 Stoichiometry    C4H9N
 Framework group  C1[X(C4H9N)]
 Deg. of freedom    36
 Full point group                 C1      NOp   1
 Largest Abelian subgroup         C1      NOp   1
 Largest concise Abelian subgroup C1      NOp   1
                         Standard orientation:                         
 ---------------------------------------------------------------------
 Center     Atomic      Atomic             Coordinates (Angstroms)
 Number     Number       Type             X           Y           Z
 ---------------------------------------------------------------------
      1          7           0       -0.009754   -1.267896   -0.216048
      2          1           0       -0.009609   -1.307741   -1.237979
      3          6           0        1.144047   -0.459296    0.201285
      4          1           0        2.052841   -0.790293   -0.312042
      5          1           0        1.291688   -0.622098    1.274281
      6          6           0        0.781546    1.017994   -0.071425
      7          1           0        1.171547    1.332796   -1.044681
      8          1           0        1.207027    1.690375    0.678894
      9          6           0       -0.765800    1.029688   -0.071443
     10          1           0       -1.151178    1.350244   -1.044131
     11          1           0       -1.181004    1.708768    0.679833
     12          6           0       -1.151114   -0.442432    0.200878
     13          1           0       -2.063843   -0.759288   -0.312137
     14          1           0       -1.301266   -0.603214    1.274532
 ---------------------------------------------------------------------
 Rotational constants (GHZ):           6.8866106           6.6914801           3.9136725
 Standard basis: 6-31G(d) (6D, 7F)
 There are    93 symmetry adapted cartesian basis functions of A   symmetry.
 There are    93 symmetry adapted basis functions of A   symmetry.
    93 basis functions,   176 primitive gaussians,    93 cartesian basis functions
    20 alpha electrons       20 beta electrons
       nuclear repulsion energy       190.0136865772 Hartrees.
 NAtoms=   14 NActive=   14 NUniq=   14 SFac= 1.00D+00 NAtFMM=   60 NAOKFM=F Big=F
 Integral buffers will be    131072 words long.
 Raffenetti 1 integral format.
 Two-electron integral symmetry is turned on.
 One-electron integrals computed using PRISM.
 NBasis=    93 RedAO= T EigKep=  3.15D-03  NBF=    93
 NBsUse=    93 1.00D-06 EigRej= -1.00D+00 NBFU=    93
 ExpMin= 1.61D-01 ExpMax= 4.17D+03 ExpMxC= 6.27D+02 IAcc=3 IRadAn=         5 AccDes= 0.00D+00
 Harris functional with IExCor=  205 and IRadAn=       5 diagonalized for initial guess.
 HarFok:  IExCor=  205 AccDes= 0.00D+00 IRadAn=         5 IDoV= 1 UseB2=F ITyADJ=14
 ICtDFT=  3500011 ScaDFX=  1.000000  1.000000  1.000000  1.000000
 FoFCou: FMM=F IPFlag=           0 FMFlag=      100000 FMFlg1=           0
         NFxFlg=           0 DoJE=T BraDBF=F KetDBF=T FulRan=T
         wScrn=  0.000000 ICntrl=       500 IOpCl=  0 I1Cent=   200000004 NGrid=           0
         NMat0=    1 NMatS0=      1 NMatT0=    0 NMatD0=    1 NMtDS0=    0 NMtDT0=    0
 Petite list used in FoFCou.
 Keep R1 ints in memory in canonical form, NReq=10436288.
 Requested convergence on RMS density matrix=1.00D-08 within 128 cycles.
 Requested convergence on MAX density matrix=1.00D-06.
 Requested convergence on             energy=1.00D-06.
 No special actions if energy rises.
 SCF Done:  E(RHF) =  -211.143200098     A.U. after   12 cycles
            NFock= 12  Conv=0.39D-08     -V/T= 2.0015
 ExpMin= 1.61D-01 ExpMax= 4.17D+03 ExpMxC= 6.27D+02 IAcc=3 IRadAn=         5 AccDes= 0.00D+00
 HarFok:  IExCor=  205 AccDes= 0.00D+00 IRadAn=         5 IDoV=-2 UseB2=F ITyADJ=14
 ICtDFT= 12500011 ScaDFX=  1.000000  1.000000  1.000000  1.000000
 Range of M.O.s used for correlation:     6    93
 NBasis=    93 NAE=    20 NBE=    20 NFC=     5 NFV=     0
 NROrb=     88 NOA=    15 NOB=    15 NVA=    73 NVB=    73
 Fully direct method using O(ONN) memory.
 JobTyp=1 Pass  1:  I=   6 to  20 NPSUse=  1 ParTrn=F ParDer=F DoDerP=T.
 Spin components of T(2) and E(2):
     alpha-alpha T2 =       0.2790801328D-01 E2=     -0.8405127363D-01
     alpha-beta  T2 =       0.1679168201D+00 E2=     -0.5160463410D+00
     beta-beta   T2 =       0.2790801328D-01 E2=     -0.8405127363D-01
 ANorm=    0.1106224591D+01
 E2 =    -0.6841488883D+00 EUMP2 =    -0.21182734898599D+03
          IDoAtm=11111111111111
          Differentiating once with respect to electric field.
                with respect to dipole field.
          Differentiating once with respect to nuclear coordinates.
 Keep R1 ints in memory in canonical form, NReq=10438744.
          There are     1 degrees of freedom in the 1st order CPHF.  IDoFFX=0 NUNeed=     1.
 LinEq1:  Iter=  0 NonCon=     1 RMS=4.26D-03 Max=4.54D-02 NDo=     1
 AX will form     1 AO Fock derivatives at one time.
 LinEq1:  Iter=  1 NonCon=     1 RMS=1.43D-03 Max=1.40D-02 NDo=     1
 LinEq1:  Iter=  2 NonCon=     1 RMS=2.90D-04 Max=3.43D-03 NDo=     1
 LinEq1:  Iter=  3 NonCon=     1 RMS=5.58D-05 Max=4.08D-04 NDo=     1
 LinEq1:  Iter=  4 NonCon=     1 RMS=1.18D-05 Max=1.55D-04 NDo=     1
 LinEq1:  Iter=  5 NonCon=     1 RMS=4.47D-06 Max=3.98D-05 NDo=     1
 LinEq1:  Iter=  6 NonCon=     1 RMS=1.05D-06 Max=1.56D-05 NDo=     1
 LinEq1:  Iter=  7 NonCon=     1 RMS=1.91D-07 Max=1.83D-06 NDo=     1
 LinEq1:  Iter=  8 NonCon=     1 RMS=6.29D-08 Max=5.75D-07 NDo=     1
 LinEq1:  Iter=  9 NonCon=     1 RMS=1.37D-08 Max=1.24D-07 NDo=     1
 LinEq1:  Iter= 10 NonCon=     1 RMS=3.65D-09 Max=2.96D-08 NDo=     1
 LinEq1:  Iter= 11 NonCon=     1 RMS=6.11D-10 Max=7.96D-09 NDo=     1
 LinEq1:  Iter= 12 NonCon=     1 RMS=1.20D-10 Max=1.50D-09 NDo=     1
 LinEq1:  Iter= 13 NonCon=     0 RMS=1.91D-11 Max=1.76D-10 NDo=     1
 Linear equations converged to 1.000D-10 1.000D-09 after    13 iterations.
 End of Minotr F.D. properties file   721 does not exist.
 End of Minotr F.D. properties file   722 does not exist.
 End of Minotr F.D. properties file   788 does not exist.

 **********************************************************************

            Population analysis using the SCF density.

 **********************************************************************

 Orbital symmetries:
       Occupied  (A) (A) (A) (A) (A) (A) (A) (A) (A) (A) (A) (A)
                 (A) (A) (A) (A) (A) (A) (A) (A)
       Virtual   (A) (A) (A) (A) (A) (A) (A) (A) (A) (A) (A) (A)
                 (A) (A) (A) (A) (A) (A) (A) (A) (A) (A) (A) (A)
                 (A) (A) (A) (A) (A) (A) (A) (A) (A) (A) (A) (A)
                 (A) (A) (A) (A) (A) (A) (A) (A) (A) (A) (A) (A)
                 (A) (A) (A) (A) (A) (A) (A) (A) (A) (A) (A) (A)
                 (A) (A) (A) (A) (A) (A) (A) (A) (A) (A) (A) (A)
                 (A)
 The electronic state is 1-A.
 Alpha  occ. eigenvalues --  -15.54076 -11.24200 -11.24195 -11.21855 -11.21799
 Alpha  occ. eigenvalues --   -1.21663  -1.01921  -0.96899  -0.81410  -0.78334
 Alpha  occ. eigenvalues --   -0.67516  -0.63699  -0.58968  -0.58396  -0.50622
 Alpha  occ. eigenvalues --   -0.49289  -0.47912  -0.47626  -0.45740  -0.37275
 Alpha virt. eigenvalues --    0.21279   0.24725   0.28660   0.29029   0.30117
 Alpha virt. eigenvalues --    0.32558   0.33858   0.33958   0.36392   0.37738
 Alpha virt. eigenvalues --    0.40785   0.41401   0.48517   0.52442   0.72779
 Alpha virt. eigenvalues --    0.76267   0.76616   0.79767   0.80365   0.83842
 Alpha virt. eigenvalues --    0.90478   0.92044   0.92595   0.94963   1.01860
 Alpha virt. eigenvalues --    1.02452   1.09480   1.10988   1.12808   1.13150
 Alpha virt. eigenvalues --    1.15438   1.17173   1.19496   1.20850   1.21106
 Alpha virt. eigenvalues --    1.23722   1.24020   1.24151   1.49539   1.52543
 Alpha virt. eigenvalues --    1.59180   1.59545   1.69288   1.90975   2.00838
 Alpha virt. eigenvalues --    2.08684   2.12260   2.13555   2.19833   2.22442
 Alpha virt. eigenvalues --    2.29045   2.31775   2.35028   2.42288   2.43267
 Alpha virt. eigenvalues --    2.43361   2.51046   2.57266   2.59218   2.71449
 Alpha virt. eigenvalues --    2.73627   2.81719   2.90009   2.95574   2.97825
 Alpha virt. eigenvalues --    2.98905   3.02819   3.24107   4.34967   4.60737
 Alpha virt. eigenvalues --    4.68019   4.86124   5.04389
          Condensed to atoms (all electrons):
               1          2          3          4          5          6
     1  N    7.058662   0.327541   0.294203  -0.033404  -0.047556  -0.084999
     2  H    0.327541   0.433304  -0.042392  -0.005379   0.005680  -0.000687
     3  C    0.294203  -0.042392   4.977886   0.403748   0.406065   0.333688
     4  H   -0.033404  -0.005379   0.403748   0.521240  -0.026325  -0.035555
     5  H   -0.047556   0.005680   0.406065  -0.026325   0.544869  -0.053864
     6  C   -0.084999  -0.000687   0.333688  -0.035555  -0.053864   5.205597
     7  H    0.002637   0.000959  -0.038300  -0.004204   0.003824   0.396024
     8  H    0.004386  -0.000026  -0.032387   0.001335  -0.002463   0.391464
     9  C   -0.085089  -0.000691  -0.061393   0.003840  -0.000390   0.321496
    10  H    0.002649   0.000958   0.003257  -0.000161  -0.000013  -0.038489
    11  H    0.004384  -0.000026   0.002984  -0.000064   0.000166  -0.033459
    12  C    0.294002  -0.042370  -0.094809   0.006117  -0.001884  -0.061284
    13  H   -0.033416  -0.005385   0.006123  -0.000114  -0.000171   0.003829
    14  H   -0.047622   0.005682  -0.001900  -0.000171   0.003456  -0.000382
               7          8          9         10         11         12
     1  N    0.002637   0.004386  -0.085089   0.002649   0.004384   0.294002
     2  H    0.000959  -0.000026  -0.000691   0.000958  -0.000026  -0.042370
     3  C   -0.038300  -0.032387  -0.061393   0.003257   0.002984  -0.094809
     4  H   -0.004204   0.001335   0.003840  -0.000161  -0.000064   0.006117
     5  H    0.003824  -0.002463  -0.000390  -0.000013   0.000166  -0.001884
     6  C    0.396024   0.391464   0.321496  -0.038489  -0.033459  -0.061284
     7  H    0.542616  -0.025836  -0.038527  -0.006280   0.002599   0.003251
     8  H   -0.025836   0.527014  -0.033400   0.002596  -0.003631   0.002974
     9  C   -0.038527  -0.033400   5.205831   0.395992   0.391377   0.333836
    10  H   -0.006280   0.002596   0.395992   0.542443  -0.025801  -0.038327
    11  H    0.002599  -0.003631   0.391377  -0.025801   0.527314  -0.032361
    12  C    0.003251   0.002974   0.333836  -0.038327  -0.032361   4.977646
    13  H   -0.000161  -0.000063  -0.035505  -0.004188   0.001332   0.403827
    14  H   -0.000013   0.000165  -0.053852   0.003822  -0.002460   0.406044
              13         14
     1  N   -0.033416  -0.047622
     2  H   -0.005385   0.005682
     3  C    0.006123  -0.001900
     4  H   -0.000114  -0.000171
     5  H   -0.000171   0.003456
     6  C    0.003829  -0.000382
     7  H   -0.000161  -0.000013
     8  H   -0.000063   0.000165
     9  C   -0.035505  -0.053852
    10  H   -0.004188   0.003822
    11  H    0.001332  -0.002460
    12  C    0.403827   0.406044
    13  H    0.520894  -0.026326
    14  H   -0.026326   0.545162
 Mulliken charges:
               1
     1  N   -0.656379
     2  H    0.322831
     3  C   -0.156772
     4  H    0.169095
     5  H    0.168606
     6  C   -0.343380
     7  H    0.161410
     8  H    0.167872
     9  C   -0.343527
    10  H    0.161542
    11  H    0.167645
    12  C   -0.156662
    13  H    0.169324
    14  H    0.168395
 Sum of Mulliken charges =  -0.00000
 Mulliken charges with hydrogens summed into heavy atoms:
               1
     1  N   -0.333548
     3  C    0.180929
     6  C   -0.014098
     9  C   -0.014340
    12  C    0.181057
 Electronic spatial extent (au):  <R**2>=            390.2955
 Charge=             -0.0000 electrons
 Dipole moment (field-independent basis, Debye):
    X=              0.0108    Y=              1.4000    Z=             -0.6708  Tot=              1.5525
 Quadrupole moment (field-independent basis, Debye-Ang):
   XX=            -31.4430   YY=            -37.4386   ZZ=            -30.3356
   XY=             -0.0423   XZ=              0.0141   YZ=              1.4414
 Traceless Quadrupole moment (field-independent basis, Debye-Ang):
   XX=              1.6294   YY=             -4.3662   ZZ=              2.7368
   XY=             -0.0423   XZ=              0.0141   YZ=              1.4414
 Octapole moment (field-independent basis, Debye-Ang**2):
  XXX=             -0.0557  YYY=              7.4680  ZZZ=             -2.5630  XYY=              0.0925
  XXY=             -2.2856  XXZ=             -1.0006  XZZ=             -0.0165  YZZ=             -2.3218
  YYZ=             -1.4684  XYZ=             -0.0024
 Hexadecapole moment (field-independent basis, Debye-Ang**3):
 XXXX=           -226.6934 YYYY=           -248.7377 ZZZZ=            -65.8087 XXXY=              0.0072
 XXXZ=              0.0625 YYYX=             -0.1840 YYYZ=              5.7507 ZZZX=              0.0341
 ZZZY=              3.2304 XXYY=            -75.0449 XXZZ=            -48.5104 YYZZ=            -45.1589
 XXYZ=              2.0821 YYXZ=              0.0159 ZZXY=              0.0194
 N-N= 1.900136865772D+02 E-N=-8.720763185249D+02  KE= 2.108304137868D+02
 Calling FoFJK, ICntrl=  10002127 FMM=F ISym2X=0 I1Cent= 0 IOpClX= 0 NMat=1 NMatS=1 NMatT=0.
 ***** Axes restored to original set *****
 -------------------------------------------------------------------
 Center     Atomic                   Forces (Hartrees/Bohr)
 Number     Number              X              Y              Z
 -------------------------------------------------------------------
      1        7           0.000067218    0.000324295    0.000355385
      2        1          -0.000147219   -0.000035560   -0.000241089
      3        6           0.000758105    0.000773310    0.000735129
      4        1          -0.000288273   -0.000698691   -0.000271797
      5        1          -0.000308412    0.000033250   -0.000433494
      6        6          -0.000098258    0.000152779    0.000315185
      7        1          -0.000099833   -0.000004959   -0.000060197
      8        1           0.000110722   -0.000045813   -0.000301852
      9        6          -0.000507108   -0.000177978   -0.000275408
     10        1           0.000133008   -0.000094664    0.000103544
     11        1           0.000074374    0.000132703    0.000198827
     12        6           0.000296758   -0.000382461    0.000076681
     13        1           0.000028013    0.000050298   -0.000099903
     14        1          -0.000019094   -0.000026509   -0.000101012
 -------------------------------------------------------------------
 Cartesian Forces:  Max     0.000773310 RMS     0.000306300

 GradGradGradGradGradGradGradGradGradGradGradGradGradGradGradGradGradGrad
 Berny optimization.
 FormGI is forming the generalized inverse of G from B-inverse, IUseBI=4.
 Internal  Forces:  Max     0.000802576 RMS     0.000137397
 Search for a local minimum.
 Step number   1 out of a maximum of   90 on scan point     1 out of     7
 All quantities printed in internal units (Hartrees-Bohrs-Radians)
 Mixed Optimization -- En-DIIS/RFO-DIIS
 Second derivative matrix not updated -- first step.
 ITU=  0
     Eigenvalues ---    0.00323   0.01552   0.02307   0.02520   0.04338
     Eigenvalues ---    0.04380   0.04969   0.05400   0.05525   0.05682
     Eigenvalues ---    0.05842   0.06889   0.06892   0.08231   0.08733
     Eigenvalues ---    0.08798   0.09329   0.11006   0.11213   0.19067
     Eigenvalues ---    0.21179   0.26196   0.26953   0.28012   0.33878
     Eigenvalues ---    0.34133   0.34210   0.34244   0.34272   0.34296
     Eigenvalues ---    0.34325   0.34326   0.34364   0.34392   0.43909
     Eigenvalues --- 1000.000001000.000001000.000001000.000001000.00000
     Eigenvalues --- 1000.000001000.000001000.000001000.000001000.00000
     Eigenvalues --- 1000.000001000.000001000.000001000.000001000.00000
     Eigenvalues --- 1000.000001000.000001000.000001000.000001000.00000
     Eigenvalues --- 1000.000001000.000001000.000001000.000001000.00000
     Eigenvalues --- 1000.000001000.000001000.000001000.000001000.00000
     Eigenvalues --- 1000.000001000.000001000.000001000.000001000.00000
     Eigenvalues --- 1000.000001000.000001000.000001000.000001000.00000
     Eigenvalues --- 1000.000001000.000001000.000001000.000001000.00000
 RFO step:  Lambda=-4.82753654D-06 EMin= 3.22961032D-03
 Linear search not attempted -- first point.
 Iteration  1 RMS(Cart)=  0.00041628 RMS(Int)=  0.00000023
 Iteration  2 RMS(Cart)=  0.00000020 RMS(Int)=  0.00000007
 Iteration  1 RMS(Cart)=  0.00000000 RMS(Int)=  0.00000000
 Variable       Old X    -DE/DX   Delta X   Delta X   Delta X     New X
                                 (Linear)    (Quad)   (Total)
    R1        1.93264  -0.00028   0.00000  -0.00065  -0.00065   1.93199
    R2        2.77684   0.00007   0.00000   0.00023   0.00023   2.77707
    R3        2.77598   0.00035   0.00000   0.00101   0.00101   2.77699
    R4        2.06920  -0.00080   0.00000  -0.00234  -0.00234   2.06686
    R5        2.06977   0.00053   0.00000   0.00155   0.00155   2.07132
    R6        2.92032  -0.00004   0.00000  -0.00010  -0.00010   2.92022
    R7        2.06874  -0.00011   0.00000  -0.00034  -0.00034   2.06840
    R8        2.06673   0.00032   0.00000   0.00092   0.00092   2.06765
    R9        2.92414   0.00015   0.00000   0.00048   0.00048   2.92462
   R10        2.06784   0.00019   0.00000   0.00055   0.00055   2.06839
   R11        2.06833  -0.00024   0.00000  -0.00070  -0.00070   2.06763
   R12        2.92130  -0.00026   0.00000  -0.00099  -0.00099   2.92031
   R13        2.06721  -0.00011   0.00000  -0.00033  -0.00033   2.06688
   R14        2.07106   0.00009   0.00000   0.00026   0.00026   2.07132
    A1        1.88086   0.00002   0.00000   0.00012   0.00012   1.88099
    A2        1.88137  -0.00002   0.00000  -0.00021  -0.00021   1.88116
    A3        1.79287  -0.00003   0.00000  -0.00001  -0.00001   1.79286
    A4        1.93072   0.00001   0.00000   0.00035   0.00035   1.93107
    A5        1.87788   0.00001   0.00000  -0.00029  -0.00029   1.87759
    A6        1.86683  -0.00005   0.00000  -0.00023  -0.00023   1.86660
    A7        1.87807   0.00000   0.00000   0.00015   0.00015   1.87822
    A8        1.98333   0.00006   0.00000   0.00059   0.00059   1.98391
    A9        1.92473  -0.00005   0.00000  -0.00062  -0.00062   1.92411
   A10        1.92646  -0.00005   0.00000  -0.00034  -0.00034   1.92613
   A11        1.95561   0.00003   0.00000   0.00063   0.00063   1.95624
   A12        1.81501   0.00008   0.00000   0.00041   0.00041   1.81542
   A13        1.86977   0.00001   0.00000  -0.00019  -0.00019   1.86958
   A14        1.93270   0.00000   0.00000  -0.00002  -0.00002   1.93268
   A15        1.96534  -0.00007   0.00000  -0.00048  -0.00048   1.96487
   A16        1.93307  -0.00001   0.00000  -0.00015  -0.00015   1.93291
   A17        1.96494  -0.00000   0.00000  -0.00003  -0.00003   1.96492
   A18        1.81527  -0.00001   0.00000  -0.00015  -0.00015   1.81512
   A19        1.87003  -0.00003   0.00000  -0.00040  -0.00040   1.86963
   A20        1.92599   0.00001   0.00000   0.00019   0.00019   1.92618
   A21        1.95559   0.00004   0.00000   0.00055   0.00055   1.95614
   A22        1.86654   0.00003   0.00000   0.00019   0.00019   1.86673
   A23        1.93094   0.00001   0.00000   0.00029   0.00029   1.93124
   A24        1.87764   0.00001   0.00000   0.00014   0.00014   1.87779
   A25        1.98361  -0.00001   0.00000   0.00002   0.00002   1.98362
   A26        1.92455  -0.00006   0.00000  -0.00065  -0.00065   1.92390
   A27        1.87824   0.00001   0.00000   0.00001   0.00001   1.87825
    D1       -0.85065  -0.00002   0.00000  -0.00044  -0.00044  -0.85109
    D2       -2.89759  -0.00004   0.00000  -0.00065  -0.00065  -2.89824
    D3        1.31772   0.00004   0.00000   0.00035   0.00035   1.31807
    D4       -2.83442   0.00002   0.00000  -0.00024  -0.00024  -2.83466
    D5        1.40182  -0.00001   0.00000  -0.00045  -0.00045   1.40138
    D6       -0.66605   0.00007   0.00000   0.00055   0.00055  -0.66550
    D7       -1.31775  -0.00002   0.00000  -0.00005  -0.00005  -1.31780
    D8        0.85091  -0.00000   0.00000   0.00027   0.00027   0.85119
    D9        2.89805   0.00003   0.00000   0.00054   0.00054   2.89858
   D10        0.66565  -0.00001   0.00000   0.00000  -0.00000   0.66565
   D11        2.83431   0.00000   0.00000   0.00032   0.00032   2.83463
   D12       -1.40174   0.00003   0.00000   0.00059   0.00059  -1.40116
   D13       -1.66449  -0.00003   0.00000  -0.00051  -0.00051  -1.66500
   D14        2.53645  -0.00002   0.00000  -0.00045  -0.00045   2.53599
   D15        0.40902  -0.00001   0.00000  -0.00047  -0.00047   0.40855
   D16        0.47131  -0.00000   0.00000   0.00014   0.00014   0.47145
   D17       -1.61094   0.00000   0.00000   0.00020   0.00020  -1.61074
   D18        2.54483   0.00002   0.00000   0.00018   0.00018   2.54501
   D19        2.58157   0.00001   0.00000   0.00029   0.00029   2.58186
   D20        0.49932   0.00001   0.00000   0.00035   0.00035   0.49967
   D21       -1.62810   0.00003   0.00000   0.00033   0.00033  -1.62777
   D22       -2.06931   0.00001   0.00000   0.00036   0.00036  -2.06895
   D23        2.12056   0.00005   0.00000   0.00099   0.00099   2.12156
   D24       -0.00031   0.00001   0.00000   0.00043   0.00043   0.00012
   D25       -0.00008  -0.00001   0.00000   0.00018   0.00018   0.00011
   D26       -2.09339   0.00003   0.00000   0.00082   0.00082  -2.09257
   D27        2.06893  -0.00000   0.00000   0.00025   0.00025   2.06918
   D28        2.09292  -0.00005   0.00000  -0.00040  -0.00040   2.09252
   D29       -0.00039  -0.00000   0.00000   0.00023   0.00023  -0.00015
   D30       -2.12126  -0.00004   0.00000  -0.00033  -0.00033  -2.12159
   D31       -0.40859   0.00002   0.00000  -0.00021  -0.00021  -0.40879
   D32       -2.54465  -0.00001   0.00000  -0.00072  -0.00072  -2.54536
   D33        1.62799   0.00002   0.00000  -0.00027  -0.00027   1.62772
   D34        1.66527   0.00001   0.00000  -0.00037  -0.00037   1.66489
   D35       -0.47079  -0.00002   0.00000  -0.00088  -0.00088  -0.47167
   D36       -2.58134   0.00001   0.00000  -0.00044  -0.00044  -2.58177
   D37       -2.53568   0.00001   0.00000  -0.00038  -0.00038  -2.53606
   D38        1.61145  -0.00002   0.00000  -0.00089  -0.00089   1.61056
   D39       -0.49910   0.00001   0.00000  -0.00045  -0.00045  -0.49954
         Item               Value     Threshold  Converged?
 Maximum Force            0.000803     0.000450     NO 
 RMS     Force            0.000138     0.000300     YES
 Maximum Displacement     0.001134     0.001800     YES
 RMS     Displacement     0.000416     0.001200     YES
 Predicted change in Energy=-2.413701D-06
 GradGradGradGradGradGradGradGradGradGradGradGradGradGradGradGradGradGrad

                          Input orientation:                          
 ---------------------------------------------------------------------
 Center     Atomic      Atomic             Coordinates (Angstroms)
 Number     Number       Type             X           Y           Z
 ---------------------------------------------------------------------
      1          7           0        0.844211    0.456372    0.923450
      2          1           0        1.372002    0.494969    1.798194
      3          6           0        1.643312    1.125600   -0.112497
      4          1           0        1.999880    2.096598    0.242856
      5          1           0        0.986726    1.307345   -0.971149
      6          6           0        2.778673    0.153129   -0.503963
      7          1           0        3.688705    0.383992    0.058696
      8          1           0        3.030854    0.221572   -1.566456
      9          6           0        2.230666   -1.240120   -0.111856
     10          1           0        2.866055   -1.707119    0.647241
     11          1           0        2.185177   -1.928042   -0.961467
     12          6           0        0.830209   -0.941051    0.469024
     13          1           0        0.541937   -1.609314    1.285480
     14          1           0        0.068592   -1.026931   -0.314551
 ---------------------------------------------------------------------
                    Distance matrix (angstroms):
                    1          2          3          4          5
     1  N    0.000000
     2  H    1.022365   0.000000
     3  C    1.469562   2.030282   0.000000
     4  H    2.118754   2.319164   1.093734   0.000000
     5  H    2.081819   2.911641   1.096093   1.767261   0.000000
     6  C    2.423140   2.719467   1.545312   2.222910   2.182099
     7  H    2.973917   2.899186   2.182412   2.412273   3.035433
     8  H    3.322073   3.761304   2.203755   2.802185   2.389928
     9  C    2.423262   2.719582   2.437543   3.363446   2.962322
    10  H    2.974027   2.899324   3.177514   3.921996   3.903595
    11  H    3.322128   3.761378   3.215447   4.205051   3.450233
    12  C    1.469521   2.030366   2.295724   3.262912   2.674674
    13  H    2.118843   2.319459   3.262993   4.116607   3.714446
    14  H    2.081927   2.911829   2.674688   3.714433   2.592862
                    6          7          8          9         10
     6  C    0.000000
     7  H    1.094551   0.000000
     8  H    1.094153   1.760757   0.000000
     9  C    1.547643   2.189224   2.211946   0.000000
    10  H    2.189389   2.322904   2.940656   1.094547   0.000000
    11  H    2.211971   2.940549   2.387890   1.094142   1.760779
    12  C    2.437302   3.177279   3.215231   1.545361   2.182496
    13  H    3.363227   3.921787   4.204806   2.222759   2.412144
    14  H    2.961918   3.903234   3.449786   2.181994   3.035374
                   11         12         13         14
    11  H    0.000000
    12  C    2.203723   0.000000
    13  H    2.801892   1.093745   0.000000
    14  H    2.389651   1.096096   1.767293   0.000000
 Stoichiometry    C4H9N
 Framework group  C1[X(C4H9N)]
 Deg. of freedom    36
 Full point group                 C1      NOp   1
 Largest Abelian subgroup         C1      NOp   1
 Largest concise Abelian subgroup C1      NOp   1
                         Standard orientation:                         
 ---------------------------------------------------------------------
 Center     Atomic      Atomic             Coordinates (Angstroms)
 Number     Number       Type             X           Y           Z
 ---------------------------------------------------------------------
      1          7           0        0.003701   -1.268089   -0.216054
      2          1           0        0.003889   -1.308074   -1.237637
      3          6           0        1.149225   -0.447418    0.200946
      4          1           0        2.060532   -0.768633   -0.311492
      5          1           0        1.298284   -0.608391    1.274859
      6          6           0        0.770788    1.025874   -0.071424
      7          1           0        1.157456    1.344709   -1.044498
      8          1           0        1.188913    1.703488    0.679032
      9          6           0       -0.776848    1.021465   -0.071522
     10          1           0       -1.165438    1.337958   -1.044592
     11          1           0       -1.198967    1.696549    0.678960
     12          6           0       -1.146490   -0.454080    0.201011
     13          1           0       -2.056057   -0.780420   -0.311304
     14          1           0       -1.294568   -0.615605    1.274980
 ---------------------------------------------------------------------
 Rotational constants (GHZ):           6.8850344           6.6921375           3.9133686
 Standard basis: 6-31G(d) (6D, 7F)
 There are    93 symmetry adapted cartesian basis functions of A   symmetry.
 There are    93 symmetry adapted basis functions of A   symmetry.
    93 basis functions,   176 primitive gaussians,    93 cartesian basis functions
    20 alpha electrons       20 beta electrons
       nuclear repulsion energy       190.0086466825 Hartrees.
 NAtoms=   14 NActive=   14 NUniq=   14 SFac= 1.00D+00 NAtFMM=   60 NAOKFM=F Big=F
 Integral buffers will be    131072 words long.
 Raffenetti 1 integral format.
 Two-electron integral symmetry is turned on.
 One-electron integrals computed using PRISM.
 NBasis=    93 RedAO= T EigKep=  3.15D-03  NBF=    93
 NBsUse=    93 1.00D-06 EigRej= -1.00D+00 NBFU=    93
 Initial guess from the checkpoint file:  "PRLD.scan3.neg.chk"
 B after Tr=    -0.000000    0.000000   -0.000000
         Rot=    0.999986    0.000075   -0.000027   -0.005233 Ang=   0.60 deg.
 Keep R1 ints in memory in canonical form, NReq=10436318.
 Requested convergence on RMS density matrix=1.00D-08 within 128 cycles.
 Requested convergence on MAX density matrix=1.00D-06.
 Requested convergence on             energy=1.00D-06.
 No special actions if energy rises.
 SCF Done:  E(RHF) =  -211.143209595     A.U. after    7 cycles
            NFock=  7  Conv=0.51D-08     -V/T= 2.0015
 ExpMin= 1.61D-01 ExpMax= 4.17D+03 ExpMxC= 6.27D+02 IAcc=3 IRadAn=         5 AccDes= 0.00D+00
 HarFok:  IExCor=  205 AccDes= 0.00D+00 IRadAn=         5 IDoV=-2 UseB2=F ITyADJ=14
 ICtDFT= 12500011 ScaDFX=  1.000000  1.000000  1.000000  1.000000
 Range of M.O.s used for correlation:     6    93
 NBasis=    93 NAE=    20 NBE=    20 NFC=     5 NFV=     0
 NROrb=     88 NOA=    15 NOB=    15 NVA=    73 NVB=    73
 Fully direct method using O(ONN) memory.
 JobTyp=1 Pass  1:  I=   6 to  20 NPSUse=  1 ParTrn=F ParDer=F DoDerP=T.
 Spin components of T(2) and E(2):
     alpha-alpha T2 =       0.2790774357D-01 E2=     -0.8404959942D-01
     alpha-beta  T2 =       0.1679155653D+00 E2=     -0.5160426212D+00
     beta-beta   T2 =       0.2790774357D-01 E2=     -0.8404959942D-01
 ANorm=    0.1106223780D+01
 E2 =    -0.6841418201D+00 EUMP2 =    -0.21182735141491D+03
          IDoAtm=11111111111111
          Differentiating once with respect to electric field.
                with respect to dipole field.
          Differentiating once with respect to nuclear coordinates.
 Keep R1 ints in memory in canonical form, NReq=10438744.
          There are     1 degrees of freedom in the 1st order CPHF.  IDoFFX=0 NUNeed=     1.
 LinEq1:  Iter=  0 NonCon=     1 RMS=4.26D-03 Max=4.53D-02 NDo=     1
 AX will form     1 AO Fock derivatives at one time.
 LinEq1:  Iter=  1 NonCon=     1 RMS=1.43D-03 Max=1.40D-02 NDo=     1
 LinEq1:  Iter=  2 NonCon=     1 RMS=2.90D-04 Max=3.42D-03 NDo=     1
 LinEq1:  Iter=  3 NonCon=     1 RMS=5.59D-05 Max=4.10D-04 NDo=     1
 LinEq1:  Iter=  4 NonCon=     1 RMS=1.19D-05 Max=1.55D-04 NDo=     1
 LinEq1:  Iter=  5 NonCon=     1 RMS=4.50D-06 Max=4.00D-05 NDo=     1
 LinEq1:  Iter=  6 NonCon=     1 RMS=1.05D-06 Max=1.55D-05 NDo=     1
 LinEq1:  Iter=  7 NonCon=     1 RMS=1.92D-07 Max=1.83D-06 NDo=     1
 LinEq1:  Iter=  8 NonCon=     1 RMS=6.32D-08 Max=5.78D-07 NDo=     1
 LinEq1:  Iter=  9 NonCon=     1 RMS=1.37D-08 Max=1.25D-07 NDo=     1
 LinEq1:  Iter= 10 NonCon=     1 RMS=3.65D-09 Max=2.95D-08 NDo=     1
 LinEq1:  Iter= 11 NonCon=     1 RMS=6.11D-10 Max=7.96D-09 NDo=     1
 LinEq1:  Iter= 12 NonCon=     1 RMS=1.20D-10 Max=1.50D-09 NDo=     1
 LinEq1:  Iter= 13 NonCon=     0 RMS=1.90D-11 Max=1.76D-10 NDo=     1
 Linear equations converged to 1.000D-10 1.000D-09 after    13 iterations.
 End of Minotr F.D. properties file   721 does not exist.
 End of Minotr F.D. properties file   722 does not exist.
 End of Minotr F.D. properties file   788 does not exist.
 Calling FoFJK, ICntrl=  10002127 FMM=F ISym2X=0 I1Cent= 0 IOpClX= 0 NMat=1 NMatS=1 NMatT=0.
 ***** Axes restored to original set *****
 -------------------------------------------------------------------
 Center     Atomic                   Forces (Hartrees/Bohr)
 Number     Number              X              Y              Z
 -------------------------------------------------------------------
      1        7          -0.000085116    0.000044441    0.000007795
      2        1           0.000008884   -0.000019233    0.000006585
      3        6           0.000054262   -0.000051072   -0.000029601
      4        1           0.000002175   -0.000004999    0.000011323
      5        1          -0.000012522   -0.000009945    0.000001465
      6        6           0.000004154    0.000059956   -0.000010564
      7        1           0.000020312   -0.000009228   -0.000001066
      8        1           0.000005193   -0.000008908    0.000005292
      9        6          -0.000114829    0.000023593    0.000016828
     10        1           0.000028801    0.000008431   -0.000002783
     11        1           0.000017670    0.000002113   -0.000004729
     12        6           0.000101890   -0.000101555   -0.000021971
     13        1          -0.000015392    0.000029041    0.000012697
     14        1          -0.000015482    0.000037364    0.000008729
 -------------------------------------------------------------------
 Cartesian Forces:  Max     0.000114829 RMS     0.000037915

 GradGradGradGradGradGradGradGradGradGradGradGradGradGradGradGradGradGrad
 Berny optimization.
 Using GEDIIS/GDIIS optimizer.
 FormGI is forming the generalized inverse of G from B-inverse, IUseBI=4.
 Internal  Forces:  Max     0.000038316 RMS     0.000014250
 Search for a local minimum.
 Step number   2 out of a maximum of   90 on scan point     1 out of     7
 All quantities printed in internal units (Hartrees-Bohrs-Radians)
 Mixed Optimization -- En-DIIS/RFO-DIIS
 Swapping is turned off.
 Update second derivatives using D2CorX and points    1    2
 DE= -2.43D-06 DEPred=-2.41D-06 R= 1.01D+00
 TightC=F SS=  1.41D+00  RLast= 4.91D-03 DXNew= 5.0454D-01 1.4735D-02
 Trust test= 1.01D+00 RLast= 4.91D-03 DXMaxT set to 3.00D-01
 ITU=  1  0
     Eigenvalues ---    0.00323   0.01536   0.02307   0.02520   0.04336
     Eigenvalues ---    0.04391   0.04969   0.05352   0.05524   0.05711
     Eigenvalues ---    0.05845   0.06790   0.06894   0.08244   0.08780
     Eigenvalues ---    0.08906   0.09363   0.10993   0.11213   0.19338
     Eigenvalues ---    0.21101   0.26006   0.26949   0.27453   0.33756
     Eigenvalues ---    0.34056   0.34135   0.34223   0.34290   0.34295
     Eigenvalues ---    0.34325   0.34362   0.34370   0.35105   0.44064
     Eigenvalues --- 1000.000001000.000001000.000001000.000001000.00000
     Eigenvalues --- 1000.000001000.000001000.000001000.000001000.00000
     Eigenvalues --- 1000.000001000.000001000.000001000.000001000.00000
     Eigenvalues --- 1000.000001000.000001000.000001000.000001000.00000
     Eigenvalues --- 1000.000001000.000001000.000001000.000001000.00000
     Eigenvalues --- 1000.000001000.000001000.000001000.000001000.00000
     Eigenvalues --- 1000.000001000.000001000.000001000.000001000.00000
     Eigenvalues --- 1000.000001000.000001000.000001000.000001000.00000
     Eigenvalues --- 1000.000001000.000001000.000001000.000001000.00000
 En-DIIS/RFO-DIIS/Sim-DIIS IScMMF=       -3 using points:     2    1
 RFO step:  Lambda=-1.32199462D-07.
 DidBck=F Rises=F RFO-DIIS coefs:    1.10395   -0.10395
 Iteration  1 RMS(Cart)=  0.00016216 RMS(Int)=  0.00000003
 Iteration  2 RMS(Cart)=  0.00000002 RMS(Int)=  0.00000002
 Iteration  1 RMS(Cart)=  0.00000000 RMS(Int)=  0.00000000
 Variable       Old X    -DE/DX   Delta X   Delta X   Delta X     New X
                                 (Linear)    (Quad)   (Total)
    R1        1.93199   0.00001  -0.00007   0.00007   0.00000   1.93199
    R2        2.77707   0.00002   0.00002   0.00006   0.00008   2.77715
    R3        2.77699   0.00000   0.00010  -0.00006   0.00004   2.77703
    R4        2.06686  -0.00000  -0.00024   0.00018  -0.00006   2.06679
    R5        2.07132   0.00000   0.00016  -0.00010   0.00006   2.07137
    R6        2.92022  -0.00003  -0.00001  -0.00011  -0.00012   2.92010
    R7        2.06840   0.00001  -0.00003   0.00007   0.00003   2.06843
    R8        2.06765  -0.00000   0.00010  -0.00008   0.00001   2.06766
    R9        2.92462   0.00001   0.00005  -0.00001   0.00004   2.92466
   R10        2.06839   0.00001   0.00006  -0.00001   0.00005   2.06844
   R11        2.06763   0.00000  -0.00007   0.00006  -0.00001   2.06761
   R12        2.92031  -0.00004  -0.00010  -0.00007  -0.00017   2.92014
   R13        2.06688  -0.00000  -0.00003   0.00001  -0.00002   2.06686
   R14        2.07132   0.00000   0.00003  -0.00001   0.00001   2.07133
    A1        1.88099   0.00000   0.00001   0.00002   0.00003   1.88101
    A2        1.88116  -0.00001  -0.00002  -0.00018  -0.00020   1.88096
    A3        1.79286  -0.00003  -0.00000  -0.00013  -0.00013   1.79273
    A4        1.93107  -0.00002   0.00004  -0.00013  -0.00009   1.93098
    A5        1.87759  -0.00002  -0.00003  -0.00011  -0.00014   1.87745
    A6        1.86660   0.00003  -0.00002   0.00018   0.00015   1.86676
    A7        1.87822   0.00001   0.00002   0.00008   0.00009   1.87831
    A8        1.98391  -0.00001   0.00006  -0.00009  -0.00003   1.98389
    A9        1.92411  -0.00000  -0.00006   0.00007   0.00001   1.92412
   A10        1.92613   0.00002  -0.00003   0.00021   0.00017   1.92630
   A11        1.95624   0.00001   0.00007   0.00005   0.00012   1.95635
   A12        1.81542  -0.00003   0.00004  -0.00019  -0.00015   1.81526
   A13        1.86958  -0.00001  -0.00002  -0.00002  -0.00004   1.86954
   A14        1.93268   0.00000  -0.00000  -0.00002  -0.00003   1.93266
   A15        1.96487   0.00000  -0.00005  -0.00001  -0.00006   1.96480
   A16        1.93291  -0.00002  -0.00002  -0.00025  -0.00026   1.93265
   A17        1.96492  -0.00002  -0.00000  -0.00011  -0.00011   1.96480
   A18        1.81512   0.00002  -0.00002   0.00013   0.00012   1.81524
   A19        1.86963   0.00000  -0.00004  -0.00002  -0.00006   1.86957
   A20        1.92618   0.00001   0.00002   0.00015   0.00017   1.92635
   A21        1.95614   0.00000   0.00006   0.00010   0.00016   1.95630
   A22        1.86673   0.00001   0.00002  -0.00002  -0.00000   1.86673
   A23        1.93124  -0.00002   0.00003  -0.00026  -0.00023   1.93101
   A24        1.87779  -0.00003   0.00002  -0.00038  -0.00036   1.87742
   A25        1.98362   0.00003   0.00000   0.00027   0.00027   1.98390
   A26        1.92390   0.00001  -0.00007   0.00027   0.00020   1.92411
   A27        1.87825   0.00000   0.00000   0.00009   0.00009   1.87834
    D1       -0.85109  -0.00001  -0.00005  -0.00024  -0.00029  -0.85138
    D2       -2.89824  -0.00001  -0.00007  -0.00020  -0.00027  -2.89850
    D3        1.31807  -0.00001   0.00004  -0.00032  -0.00028   1.31779
    D4       -2.83466   0.00001  -0.00003   0.00001  -0.00002  -2.83468
    D5        1.40138   0.00001  -0.00005   0.00005   0.00001   1.40138
    D6       -0.66550   0.00001   0.00006  -0.00007  -0.00001  -0.66551
    D7       -1.31780  -0.00001  -0.00001   0.00011   0.00010  -1.31770
    D8        0.85119   0.00002   0.00003   0.00027   0.00030   0.85148
    D9        2.89858  -0.00001   0.00006   0.00000   0.00006   2.89864
   D10        0.66565  -0.00002  -0.00000   0.00000  -0.00000   0.66565
   D11        2.83463   0.00000   0.00003   0.00016   0.00019   2.83483
   D12       -1.40116  -0.00002   0.00006  -0.00010  -0.00004  -1.40120
   D13       -1.66500   0.00000  -0.00005   0.00005  -0.00000  -1.66500
   D14        2.53599  -0.00001  -0.00005  -0.00009  -0.00014   2.53585
   D15        0.40855   0.00000  -0.00005   0.00002  -0.00003   0.40852
   D16        0.47145   0.00000   0.00001  -0.00004  -0.00003   0.47142
   D17       -1.61074  -0.00001   0.00002  -0.00019  -0.00017  -1.61090
   D18        2.54501  -0.00000   0.00002  -0.00008  -0.00006   2.54495
   D19        2.58186   0.00001   0.00003   0.00005   0.00008   2.58194
   D20        0.49967  -0.00000   0.00004  -0.00010  -0.00006   0.49961
   D21       -1.62777   0.00000   0.00003   0.00001   0.00005  -1.62773
   D22       -2.06895  -0.00001   0.00004  -0.00008  -0.00005  -2.06900
   D23        2.12156   0.00001   0.00010   0.00019   0.00029   2.12185
   D24        0.00012  -0.00000   0.00004   0.00004   0.00009   0.00021
   D25        0.00011  -0.00001   0.00002   0.00004   0.00006   0.00017
   D26       -2.09257   0.00001   0.00009   0.00032   0.00040  -2.09217
   D27        2.06918   0.00000   0.00003   0.00017   0.00019   2.06938
   D28        2.09252  -0.00001  -0.00004  -0.00001  -0.00006   2.09247
   D29       -0.00015   0.00001   0.00002   0.00026   0.00028   0.00013
   D30       -2.12159  -0.00000  -0.00003   0.00011   0.00008  -2.12151
   D31       -0.40879   0.00000  -0.00002  -0.00008  -0.00010  -0.40890
   D32       -2.54536   0.00001  -0.00007   0.00009   0.00002  -2.54535
   D33        1.62772  -0.00002  -0.00003  -0.00041  -0.00043   1.62729
   D34        1.66489  -0.00000  -0.00004  -0.00023  -0.00027   1.66463
   D35       -0.47167   0.00000  -0.00009  -0.00006  -0.00015  -0.47182
   D36       -2.58177  -0.00002  -0.00005  -0.00055  -0.00060  -2.58237
   D37       -2.53606   0.00001  -0.00004  -0.00009  -0.00013  -2.53619
   D38        1.61056   0.00001  -0.00009   0.00008  -0.00001   1.61055
   D39       -0.49954  -0.00001  -0.00005  -0.00041  -0.00046  -0.50000
         Item               Value     Threshold  Converged?
 Maximum Force            0.000042     0.000450     YES
 RMS     Force            0.000013     0.000300     YES
 Maximum Displacement     0.000697     0.001800     YES
 RMS     Displacement     0.000162     0.001200     YES
 Predicted change in Energy=-6.610118D-08
 Optimization completed.
    -- Stationary point found.
                           ----------------------------
                           !   Optimized Parameters   !
                           ! (Angstroms and Degrees)  !
 --------------------------                            --------------------------
 ! Name  Definition              Value          Derivative Info.                !
 --------------------------------------------------------------------------------
 ! R1    R(1,2)                  1.0224         -DE/DX =    0.0                 !
 ! R2    R(1,3)                  1.4696         -DE/DX =    0.0                 !
 ! R3    R(1,12)                 1.4695         -DE/DX =    0.0                 !
 ! R4    R(3,4)                  1.0937         -DE/DX =    0.0                 !
 ! R5    R(3,5)                  1.0961         -DE/DX =    0.0                 !
 ! R6    R(3,6)                  1.5453         -DE/DX =    0.0                 !
 ! R7    R(6,7)                  1.0946         -DE/DX =    0.0                 !
 ! R8    R(6,8)                  1.0942         -DE/DX =    0.0                 !
 ! R9    R(6,9)                  1.5476         -DE/DX =    0.0                 !
 ! R10   R(9,10)                 1.0945         -DE/DX =    0.0                 !
 ! R11   R(9,11)                 1.0941         -DE/DX =    0.0                 !
 ! R12   R(9,12)                 1.5454         -DE/DX =    0.0                 !
 ! R13   R(12,13)                1.0937         -DE/DX =    0.0                 !
 ! R14   R(12,14)                1.0961         -DE/DX =    0.0                 !
 ! A1    A(2,1,3)              107.7725         -DE/DX =    0.0                 !
 ! A2    A(2,1,12)             107.7823         -DE/DX =    0.0                 !
 ! A3    A(3,1,12)             102.7232         -DE/DX =    0.0                 !
 ! A4    A(1,3,4)              110.6422         -DE/DX =    0.0                 !
 ! A5    A(1,3,5)              107.5782         -DE/DX =    0.0                 !
 ! A6    A(1,3,6)              106.9484         -DE/DX =    0.0                 !
 ! A7    A(4,3,5)              107.6139         -DE/DX =    0.0                 !
 ! A8    A(4,3,6)              113.6699         -DE/DX =    0.0                 !
 ! A9    A(5,3,6)              110.2434         -DE/DX =    0.0                 !
 ! A10   A(3,6,7)              110.3589         -DE/DX =    0.0                 !
 ! A11   A(3,6,8)              112.0841         -DE/DX =    0.0                 !
 ! A12   A(3,6,9)              104.0156         -DE/DX =    0.0                 !
 ! A13   A(7,6,8)              107.1191         -DE/DX =    0.0                 !
 ! A14   A(7,6,9)              110.7345         -DE/DX =    0.0                 !
 ! A15   A(8,6,9)              112.5786         -DE/DX =    0.0                 !
 ! A16   A(6,9,10)             110.7478         -DE/DX =    0.0                 !
 ! A17   A(6,9,11)             112.5814         -DE/DX =    0.0                 !
 ! A18   A(6,9,12)             103.9988         -DE/DX =    0.0                 !
 ! A19   A(10,9,11)            107.1221         -DE/DX =    0.0                 !
 ! A20   A(10,9,12)            110.3623         -DE/DX =    0.0                 !
 ! A21   A(11,9,12)            112.0786         -DE/DX =    0.0                 !
 ! A22   A(1,12,9)             106.9558         -DE/DX =    0.0                 !
 ! A23   A(1,12,13)            110.6516         -DE/DX =    0.0                 !
 ! A24   A(1,12,14)            107.5893         -DE/DX =    0.0                 !
 ! A25   A(9,12,13)            113.6532         -DE/DX =    0.0                 !
 ! A26   A(9,12,14)            110.2316         -DE/DX =    0.0                 !
 ! A27   A(13,12,14)           107.6158         -DE/DX =    0.0                 !
 ! D1    D(2,1,3,4)            -48.7637         -DE/DX =    0.0                 !
 ! D2    D(2,1,3,5)           -166.0568         -DE/DX =    0.0                 !
 ! D3    D(2,1,3,6)             75.5199         -DE/DX =    0.0                 !
 ! D4    D(12,1,3,4)          -162.414          -DE/DX =    0.0                 !
 ! D5    D(12,1,3,5)            80.2929         -DE/DX =    0.0                 !
 ! D6    D(12,1,3,6)           -38.1303         -DE/DX =    0.0                 !
 ! D7    D(2,1,12,9)           -75.5044         -DE/DX =    0.0                 !
 ! D8    D(2,1,12,13)           48.7694         -DE/DX =    0.0                 !
 ! D9    D(2,1,12,14)          166.0766         -DE/DX =    0.0                 !
 ! D10   D(3,1,12,9)            38.1387         -DE/DX =    0.0                 !
 ! D11   D(3,1,12,13)          162.4125         -DE/DX =    0.0                 !
 ! D12   D(3,1,12,14)          -80.2803         -DE/DX =    0.0                 !
 ! D13   D(1,3,6,7)            -95.3976         -DE/DX =    0.0                 !
 ! D14   D(1,3,6,8)            145.3018         -DE/DX =    0.0                 !
 ! D15   D(1,3,6,9)             23.4083         -DE/DX =    0.0                 !
 ! D16   D(4,3,6,7)             27.0122         -DE/DX =    0.0                 !
 ! D17   D(4,3,6,8)            -92.2884         -DE/DX =    0.0                 !
 ! D18   D(4,3,6,9)            145.8181         -DE/DX =    0.0                 !
 ! D19   D(5,3,6,7)            147.9297         -DE/DX =    0.0                 !
 ! D20   D(5,3,6,8)             28.6291         -DE/DX =    0.0                 !
 ! D21   D(5,3,6,9)            -93.2644         -DE/DX =    0.0                 !
 ! D22   D(3,6,9,10)          -118.5423         -DE/DX =    0.0                 !
 ! D23   D(3,6,9,11)           121.5563         -DE/DX =    0.0                 !
 ! D24   D(3,6,9,12)             0.0071         -DE/DX =    0.0                 !
 ! D25   D(7,6,9,10)             0.0061         -DE/DX =    0.0                 !
 ! D26   D(7,6,9,11)          -119.8953         -DE/DX =    0.0                 !
 ! D27   D(7,6,9,12)           118.5555         -DE/DX =    0.0                 !
 ! D28   D(8,6,9,10)           119.8927         -DE/DX =    0.0                 !
 ! D29   D(8,6,9,11)            -0.0087         -DE/DX =    0.0                 !
 ! D30   D(8,6,9,12)          -121.5579         -DE/DX =    0.0                 !
 ! D31   D(6,9,12,1)           -23.4222         -DE/DX =    0.0                 !
 ! D32   D(6,9,12,13)         -145.8386         -DE/DX =    0.0                 !
 ! D33   D(6,9,12,14)           93.2616         -DE/DX =    0.0                 !
 ! D34   D(10,9,12,1)           95.3915         -DE/DX =    0.0                 !
 ! D35   D(10,9,12,13)         -27.0249         -DE/DX =    0.0                 !
 ! D36   D(10,9,12,14)        -147.9247         -DE/DX =    0.0                 !
 ! D37   D(11,9,12,1)         -145.3055         -DE/DX =    0.0                 !
 ! D38   D(11,9,12,13)          92.2781         -DE/DX =    0.0                 !
 ! D39   D(11,9,12,14)         -28.6217         -DE/DX =    0.0                 !
 --------------------------------------------------------------------------------
 Iteration  1 RMS(Cart)=  0.01110995 RMS(Int)=  0.02629440
 Iteration  2 RMS(Cart)=  0.00206474 RMS(Int)=  0.02614114
 Iteration  3 RMS(Cart)=  0.00039659 RMS(Int)=  0.02612894
 Iteration  4 RMS(Cart)=  0.00007632 RMS(Int)=  0.02612724
 Iteration  5 RMS(Cart)=  0.00001470 RMS(Int)=  0.02612694
 Iteration  6 RMS(Cart)=  0.00000283 RMS(Int)=  0.02612688
 Iteration  7 RMS(Cart)=  0.00000055 RMS(Int)=  0.02612687
 Iteration  1 RMS(Cart)=  0.01082624 RMS(Int)=  0.02110733
 Iteration  2 RMS(Cart)=  0.00905726 RMS(Int)=  0.02259686
 Iteration  3 RMS(Cart)=  0.00714139 RMS(Int)=  0.02582177
 Iteration  4 RMS(Cart)=  0.00567029 RMS(Int)=  0.02929867
 Iteration  5 RMS(Cart)=  0.00452741 RMS(Int)=  0.03248693
 Iteration  6 RMS(Cart)=  0.00363102 RMS(Int)=  0.03524352
 Iteration  7 RMS(Cart)=  0.00292251 RMS(Int)=  0.03756612
 Iteration  8 RMS(Cart)=  0.00235897 RMS(Int)=  0.03949819
 Iteration  9 RMS(Cart)=  0.00190848 RMS(Int)=  0.04109432
 Iteration 10 RMS(Cart)=  0.00154688 RMS(Int)=  0.04240771
 Iteration 11 RMS(Cart)=  0.00125567 RMS(Int)=  0.04348585
 Iteration 12 RMS(Cart)=  0.00102050 RMS(Int)=  0.04436955
 Iteration 13 RMS(Cart)=  0.00083020 RMS(Int)=  0.04509316
 Iteration 14 RMS(Cart)=  0.00067591 RMS(Int)=  0.04568532
 Iteration 15 RMS(Cart)=  0.00055066 RMS(Int)=  0.04616967
 Iteration 16 RMS(Cart)=  0.00044885 RMS(Int)=  0.04656574
 Iteration 17 RMS(Cart)=  0.00036601 RMS(Int)=  0.04688953
 Iteration 18 RMS(Cart)=  0.00029857 RMS(Int)=  0.04715420
 Iteration 19 RMS(Cart)=  0.00024363 RMS(Int)=  0.04737052
 Iteration 20 RMS(Cart)=  0.00019884 RMS(Int)=  0.04754730
 Iteration 21 RMS(Cart)=  0.00016231 RMS(Int)=  0.04769177
 Iteration 22 RMS(Cart)=  0.00013252 RMS(Int)=  0.04780981
 Iteration 23 RMS(Cart)=  0.00010821 RMS(Int)=  0.04790627
 Iteration 24 RMS(Cart)=  0.00008836 RMS(Int)=  0.04798509
 Iteration 25 RMS(Cart)=  0.00007217 RMS(Int)=  0.04804948
 Iteration 26 RMS(Cart)=  0.00005894 RMS(Int)=  0.04810210
 Iteration 27 RMS(Cart)=  0.00004814 RMS(Int)=  0.04814509
 Iteration 28 RMS(Cart)=  0.00003932 RMS(Int)=  0.04818021
 Iteration 29 RMS(Cart)=  0.00003212 RMS(Int)=  0.04820891
 Iteration 30 RMS(Cart)=  0.00002624 RMS(Int)=  0.04823236
 Iteration 31 RMS(Cart)=  0.00002144 RMS(Int)=  0.04825151
 Iteration 32 RMS(Cart)=  0.00001751 RMS(Int)=  0.04826716
 Iteration 33 RMS(Cart)=  0.00001431 RMS(Int)=  0.04827995
 Iteration 34 RMS(Cart)=  0.00001169 RMS(Int)=  0.04829039
 Iteration 35 RMS(Cart)=  0.00000955 RMS(Int)=  0.04829893
 Iteration 36 RMS(Cart)=  0.00000780 RMS(Int)=  0.04830590
 Iteration 37 RMS(Cart)=  0.00000637 RMS(Int)=  0.04831160
 Iteration 38 RMS(Cart)=  0.00000521 RMS(Int)=  0.04831625
 Iteration 39 RMS(Cart)=  0.00000425 RMS(Int)=  0.04832006
 Iteration 40 RMS(Cart)=  0.00000347 RMS(Int)=  0.04832316
 Iteration 41 RMS(Cart)=  0.00000284 RMS(Int)=  0.04832570
 Iteration 42 RMS(Cart)=  0.00000232 RMS(Int)=  0.04832778
 Iteration 43 RMS(Cart)=  0.00000189 RMS(Int)=  0.04832947
 Iteration 44 RMS(Cart)=  0.00000155 RMS(Int)=  0.04833085
 Iteration 45 RMS(Cart)=  0.00000126 RMS(Int)=  0.04833198
 Iteration 46 RMS(Cart)=  0.00000103 RMS(Int)=  0.04833291
 Iteration 47 RMS(Cart)=  0.00000084 RMS(Int)=  0.04833366
 GradGradGradGradGradGradGradGradGradGradGradGradGradGradGradGradGradGrad

                          Input orientation:                          
 ---------------------------------------------------------------------
 Center     Atomic      Atomic             Coordinates (Angstroms)
 Number     Number       Type             X           Y           Z
 ---------------------------------------------------------------------
      1          7           0        0.738839    0.476443    0.886380
      2          1           0        1.248875    0.556355    1.768911
      3          6           0        1.691332    1.085698   -0.085822
      4          1           0        2.013073    2.057354    0.299782
      5          1           0        1.096828    1.246837   -0.992762
      6          6           0        2.802416    0.159797   -0.517569
      7          1           0        3.729311    0.333139    0.038441
      8          1           0        3.044057    0.285531   -1.577389
      9          6           0        2.212903   -1.205347   -0.160971
     10          1           0        2.895441   -1.650928    0.569733
     11          1           0        2.122388   -1.899124   -1.002254
     12          6           0        0.832268   -0.960993    0.545121
     13          1           0        0.540370   -1.614898    1.371848
     14          1           0        0.098899   -1.082863   -0.260449
 ---------------------------------------------------------------------
                    Distance matrix (angstroms):
                    1          2          3          4          5
     1  N    0.000000
     2  H    1.022440   0.000000
     3  C    1.491177   1.978890   0.000000
     4  H    2.113539   2.235025   1.093766   0.000000
     5  H    2.062240   2.850740   1.096330   1.779638   0.000000
     6  C    2.515887   2.792623   1.509373   2.211752   2.077618
     7  H    3.111665   3.032642   2.176039   2.446771   2.971227
     8  H    3.379443   3.807066   2.166773   2.779578   2.248911
     9  C    2.469459   2.785209   2.350866   3.301127   2.819700
    10  H    3.045801   3.003549   3.060842   3.821361   3.751459
    11  H    3.335336   3.804177   3.151955   4.166649   3.308918
    12  C    1.480341   1.993382   2.307601   3.250371   2.703625
    13  H    2.156102   2.318185   3.277611   4.099221   3.753739
    14  H    2.038669   2.850926   2.696106   3.720064   2.638114
                    6          7          8          9         10
     6  C    0.000000
     7  H    1.094682   0.000000
     8  H    1.094266   1.755775   0.000000
     9  C    1.529152   2.169377   2.218057   0.000000
    10  H    2.114144   2.216784   2.895185   1.094682   0.000000
    11  H    2.221827   2.940790   2.439872   1.094201   1.769281
    12  C    2.503391   3.213154   3.309212   1.569850   2.175615
    13  H    3.440391   3.967640   4.310230   2.305348   2.488181
    14  H    2.986523   3.908233   3.504396   2.119884   2.971960
                   11         12         13         14
    11  H    0.000000
    12  C    2.222356   0.000000
    13  H    2.867041   1.093743   0.000000
    14  H    2.304575   1.096186   1.772668   0.000000
 Stoichiometry    C4H9N
 Framework group  C1[X(C4H9N)]
 Deg. of freedom    36
 Full point group                 C1      NOp   1
 Largest Abelian subgroup         C1      NOp   1
 Largest concise Abelian subgroup C1      NOp   1
                         Standard orientation:                         
 ---------------------------------------------------------------------
 Center     Atomic      Atomic             Coordinates (Angstroms)
 Number     Number       Type             X           Y           Z
 ---------------------------------------------------------------------
      1          7           0       -1.039087   -0.835422   -0.121242
      2          1           0       -1.079371   -0.919624   -1.139412
      3          6           0        0.395674   -1.125063    0.163678
      4          1           0        0.673461   -2.054206   -0.342140
      5          1           0        0.435753   -1.289056    1.246932
      6          6           0        1.317199    0.045399   -0.079258
      7          1           0        1.812034   -0.008893   -1.054204
      8          1           0        2.110399    0.097835    0.672740
      9          6           0        0.333744    1.215812   -0.043781
     10          1           0        0.394344    1.695072   -1.026108
     11          1           0        0.551831    1.974574    0.713843
     12          6           0       -1.110269    0.622931    0.122783
     13          1           0       -1.940623    1.102765   -0.403093
     14          1           0       -1.302309    0.695018    1.199607
 ---------------------------------------------------------------------
 Rotational constants (GHZ):           7.1480122           6.4290566           3.8232435
 Standard basis: 6-31G(d) (6D, 7F)
 There are    93 symmetry adapted cartesian basis functions of A   symmetry.
 There are    93 symmetry adapted basis functions of A   symmetry.
    93 basis functions,   176 primitive gaussians,    93 cartesian basis functions
    20 alpha electrons       20 beta electrons
       nuclear repulsion energy       189.6004246705 Hartrees.
 NAtoms=   14 NActive=   14 NUniq=   14 SFac= 1.00D+00 NAtFMM=   60 NAOKFM=F Big=F
 Integral buffers will be    131072 words long.
 Raffenetti 1 integral format.
 Two-electron integral symmetry is turned on.
 One-electron integrals computed using PRISM.
 NBasis=    93 RedAO= T EigKep=  3.17D-03  NBF=    93
 NBsUse=    93 1.00D-06 EigRej= -1.00D+00 NBFU=    93
 Initial guess from the checkpoint file:  "PRLD.scan3.neg.chk"
 B after Tr=    -0.000000   -0.000000    0.000000
         Rot=    0.902134    0.008723    0.001474    0.431366 Ang=  51.12 deg.
 Keep R1 ints in memory in canonical form, NReq=10436345.
 Requested convergence on RMS density matrix=1.00D-08 within 128 cycles.
 Requested convergence on MAX density matrix=1.00D-06.
 Requested convergence on             energy=1.00D-06.
 No special actions if energy rises.
 SCF Done:  E(RHF) =  -211.129047811     A.U. after   11 cycles
            NFock= 11  Conv=0.71D-08     -V/T= 2.0012
 ExpMin= 1.61D-01 ExpMax= 4.17D+03 ExpMxC= 6.27D+02 IAcc=3 IRadAn=         5 AccDes= 0.00D+00
 HarFok:  IExCor=  205 AccDes= 0.00D+00 IRadAn=         5 IDoV=-2 UseB2=F ITyADJ=14
 ICtDFT= 12500011 ScaDFX=  1.000000  1.000000  1.000000  1.000000
 Range of M.O.s used for correlation:     6    93
 NBasis=    93 NAE=    20 NBE=    20 NFC=     5 NFV=     0
 NROrb=     88 NOA=    15 NOB=    15 NVA=    73 NVB=    73
 Fully direct method using O(ONN) memory.
 JobTyp=1 Pass  1:  I=   6 to  20 NPSUse=  1 ParTrn=F ParDer=F DoDerP=T.
 Spin components of T(2) and E(2):
     alpha-alpha T2 =       0.2806693369D-01 E2=     -0.8428860832D-01
     alpha-beta  T2 =       0.1690489213D+00 E2=     -0.5176749538D+00
     beta-beta   T2 =       0.2806693369D-01 E2=     -0.8428860832D-01
 ANorm=    0.1106879753D+01
 E2 =    -0.6862521705D+00 EUMP2 =    -0.21181529998191D+03
          IDoAtm=11111111111111
          Differentiating once with respect to electric field.
                with respect to dipole field.
          Differentiating once with respect to nuclear coordinates.
 Keep R1 ints in memory in canonical form, NReq=10438735.
          There are     1 degrees of freedom in the 1st order CPHF.  IDoFFX=0 NUNeed=     1.
 LinEq1:  Iter=  0 NonCon=     1 RMS=4.28D-03 Max=3.94D-02 NDo=     1
 AX will form     1 AO Fock derivatives at one time.
 LinEq1:  Iter=  1 NonCon=     1 RMS=1.44D-03 Max=1.09D-02 NDo=     1
 LinEq1:  Iter=  2 NonCon=     1 RMS=3.05D-04 Max=2.79D-03 NDo=     1
 LinEq1:  Iter=  3 NonCon=     1 RMS=6.55D-05 Max=5.07D-04 NDo=     1
 LinEq1:  Iter=  4 NonCon=     1 RMS=1.95D-05 Max=2.27D-04 NDo=     1
 LinEq1:  Iter=  5 NonCon=     1 RMS=7.39D-06 Max=6.62D-05 NDo=     1
 LinEq1:  Iter=  6 NonCon=     1 RMS=1.29D-06 Max=1.64D-05 NDo=     1
 LinEq1:  Iter=  7 NonCon=     1 RMS=3.97D-07 Max=2.80D-06 NDo=     1
 LinEq1:  Iter=  8 NonCon=     1 RMS=9.52D-08 Max=9.38D-07 NDo=     1
 LinEq1:  Iter=  9 NonCon=     1 RMS=2.00D-08 Max=1.83D-07 NDo=     1
 LinEq1:  Iter= 10 NonCon=     1 RMS=5.77D-09 Max=3.99D-08 NDo=     1
 LinEq1:  Iter= 11 NonCon=     1 RMS=1.27D-09 Max=1.13D-08 NDo=     1
 LinEq1:  Iter= 12 NonCon=     1 RMS=3.66D-10 Max=4.62D-09 NDo=     1
 LinEq1:  Iter= 13 NonCon=     0 RMS=7.68D-11 Max=7.19D-10 NDo=     1
 Linear equations converged to 1.000D-10 1.000D-09 after    13 iterations.
 End of Minotr F.D. properties file   721 does not exist.
 End of Minotr F.D. properties file   722 does not exist.
 End of Minotr F.D. properties file   788 does not exist.
 Calling FoFJK, ICntrl=  10002127 FMM=F ISym2X=0 I1Cent= 0 IOpClX= 0 NMat=1 NMatS=1 NMatT=0.
 ***** Axes restored to original set *****
 -------------------------------------------------------------------
 Center     Atomic                   Forces (Hartrees/Bohr)
 Number     Number              X              Y              Z
 -------------------------------------------------------------------
      1        7           0.036599366   -0.008873008    0.007389036
      2        1          -0.004796382    0.002423780    0.007900248
      3        6          -0.029195523    0.025228220   -0.013409841
      4        1           0.000162577    0.000890386   -0.002318297
      5        1          -0.002382584    0.008095155    0.000988032
      6        6           0.003585069   -0.005981202    0.009140763
      7        1          -0.000304839   -0.000103218    0.000615589
      8        1          -0.002249469   -0.001065512    0.000659440
      9        6           0.005909176   -0.018821221    0.024576274
     10        1           0.000089220   -0.007418843   -0.002160012
     11        1          -0.000531329    0.001320174    0.000629906
     12        6          -0.007350696    0.009687553   -0.038072636
     13        1           0.006833236    0.000689341    0.000115672
     14        1          -0.006367822   -0.006071607    0.003945828
 -------------------------------------------------------------------
 Cartesian Forces:  Max     0.038072636 RMS     0.012192240

 GradGradGradGradGradGradGradGradGradGradGradGradGradGradGradGradGradGrad
 Berny optimization.
 FormGI is forming the generalized inverse of G from B-inverse, IUseBI=4.
 Internal  Forces:  Max     0.023796875 RMS     0.006420172
 Search for a local minimum.
 Step number   1 out of a maximum of   90 on scan point     2 out of     7
 All quantities printed in internal units (Hartrees-Bohrs-Radians)
 Mixed Optimization -- RFO/linear search
 Second derivative matrix not updated -- first step.
 ITU=  0
     Eigenvalues ---    0.00312   0.01421   0.02114   0.02752   0.03800
     Eigenvalues ---    0.04470   0.05056   0.05409   0.05486   0.05712
     Eigenvalues ---    0.05916   0.06480   0.07347   0.08123   0.09023
     Eigenvalues ---    0.09600   0.09936   0.11656   0.11730   0.20572
     Eigenvalues ---    0.21913   0.26259   0.27220   0.27426   0.33899
     Eigenvalues ---    0.34135   0.34224   0.34292   0.34301   0.34352
     Eigenvalues ---    0.34362   0.34392   0.34601   0.35202   0.44064
     Eigenvalues --- 1000.000001000.000001000.000001000.000001000.00000
     Eigenvalues --- 1000.000001000.000001000.000001000.000001000.00000
     Eigenvalues --- 1000.000001000.000001000.000001000.000001000.00000
     Eigenvalues --- 1000.000001000.000001000.000001000.000001000.00000
     Eigenvalues --- 1000.000001000.000001000.000001000.000001000.00000
     Eigenvalues --- 1000.000001000.000001000.000001000.000001000.00000
     Eigenvalues --- 1000.000001000.000001000.000001000.000001000.00000
     Eigenvalues --- 1000.000001000.000001000.000001000.000001000.00000
     Eigenvalues --- 1000.000001000.000001000.000001000.000001000.00000
 RFO step:  Lambda=-1.30596581D-02 EMin= 3.11815968D-03
 Linear search not attempted -- first point.
 Iteration  1 RMS(Cart)=  0.05252193 RMS(Int)=  0.00182714
 Iteration  2 RMS(Cart)=  0.00176069 RMS(Int)=  0.00072384
[...]
           A26        110.23161 110.26436 110.92489 111.84470 112.72982
           A27        107.61581 107.20542 107.15814 107.34676 107.60519
           D1         -48.76370 -48.50708 -39.22351 -24.72190  -5.18763
           D2        -166.05683-166.41225-157.04794-142.59517-123.60097
           D3          75.51995  75.53978  84.91918  99.19547 117.63498
           D4        -162.41397-162.51773-154.47766-142.67761-126.83388
           D5          80.29291  79.57710  87.69791  99.44913 114.75278
           D6         -38.13032 -38.47086 -30.33497 -18.76023  -4.01127
           D7         -75.50435 -90.37167-106.69730-124.73589-143.56793
           D8          48.76942  33.27484  15.00844  -5.03948 -25.19898
           D9         166.07659 150.14056 132.67038 113.99287  95.27584
           D10         38.13873  23.13869   8.13927  -6.86051 -21.86096
           D11        162.41250 146.78520 129.84502 112.83590  96.50799
           D12        -80.28033 -96.34909-112.49304-128.13175-143.01718
           D13        -95.39760 -78.81645 -76.66522 -79.99019 -88.42789
           D14        145.30180 160.84284 162.09148 158.45363 150.56616
           D15         23.40826  38.46864  40.21403  36.58159  28.07923
           D16         27.01225  42.81394  44.77089  41.74214  33.73240
           D17        -92.28836 -77.52676 -76.47241 -79.81404 -87.27355
           D18        145.81810 160.09904 161.65013 158.31391 150.23952
           D19        147.92972 164.43898 165.93115 162.11091 153.40506
           D20         28.62911  44.09828  44.68785  40.55473  32.39911
           D21        -93.26443 -78.27592 -77.18960 -81.31732 -90.08782
           D22       -118.54231-144.74502-156.18866-161.84652-162.49735
           D23        121.55627  95.70028  83.81479  77.37558  75.83320
           D24          0.00709 -22.93645 -33.82003 -39.80325 -40.83372
           D25          0.00614 -28.42047 -39.93912 -45.21105 -45.39024
           D26       -119.89528-147.97516-159.93567-165.98895-167.05969
           D27        118.55554  93.38810  82.42952  76.83222  76.27339
           D28        119.89269  92.38433  81.48179  76.31261  75.55801
           D29         -0.00873 -27.17037 -38.51476 -44.46529 -46.11144
           D30       -121.55791-145.80711-156.14958-161.64412-162.77836
           D31        -23.42218   0.62043  16.78379  29.60212  38.98024
           D32       -145.83858-121.07738-103.83312 -90.63208 -81.62840
           D33         93.26163 118.95992 136.68261 149.99892 158.65613
           D34         95.39145 122.29572 139.63877 152.56505 161.34340
           D35        -27.02495   0.59790  19.02186  32.33085  40.73476
           D36       -147.92474-119.36479-100.46241 -87.03815 -78.98071
           D37       -145.30551-118.11582-100.51227 -87.18195 -77.81486
           D38         92.27809 120.18636 138.87081 152.58385 161.57650
           D39        -28.62170   0.22367  19.38655  33.21485  41.86103
                           6         7
     Eigenvalues --    -0.82625  -0.82692
           R1           1.01724   1.02089
           R2           1.47934   1.46649
           R3           1.46599   1.46442
           R4           1.09893   1.10381
           R5           1.09584   1.09413
           R6           1.54185   1.54323
           R7           1.09509   1.09362
           R8           1.09349   1.09275
           R9           1.53126   1.55038
           R10          1.09380   1.09373
           R11          1.09451   1.09249
           R12          1.52300   1.52871
           R13          1.10448   1.10503
           R14          1.09495   1.09435
           A1         111.59721 111.14524
           A2         111.91640 111.52772
           A3         108.08517 102.90102
           A4         112.78264 112.61988
           A5         109.33534 110.83302
           A6         105.18476 102.33877
           A7         107.18521 108.02000
           A8         110.78912 109.89027
           A9         111.62997 113.15786
           A10        110.19532 111.12816
           A11        112.58246 110.90171
           A12        103.92798 104.37208
           A13        107.43407 107.43876
           A14        109.44314 112.11425
           A15        113.23664 110.93773
           A16        113.18687 112.92685
           A17        110.65636 110.53822
           A18        101.80198 103.10133
           A19        108.50448 108.13485
           A20        113.20867 112.68806
           A21        109.34241 109.38243
           A22        101.89450 100.86527
           A23        113.88164 113.02798
           A24        110.28004 110.96461
           A25        109.59104 110.23815
           A26        113.32197 113.41713
           A27        107.91859 108.29220
           D1          17.64393  47.30215
           D2        -101.49926 -73.83730
           D3         138.50004 165.23458
           D4        -105.83134 -72.18454
           D5         135.02547 166.67601
           D6          15.02477  45.74788
           D7        -160.14275-171.08203
           D8         -42.23789 -53.41574
           D9          79.24973  68.45986
           D10        -36.86083 -51.86098
           D11         81.04403  65.80531
           D12       -157.46834-172.31909
           D13       -104.38709-142.43814
           D14        135.69714  98.12308
           D15         12.78347 -21.39776
           D16         17.76902 -22.58170
           D17       -102.14676-142.02049
           D18        134.93957  98.45868
           D19        137.14380  98.25264
           D20         17.22803 -21.18614
           D21       -105.68565-140.70698
           D22       -156.28737-130.98466
           D23         81.67554 107.72643
           D24        -34.45294  -9.08535
           D25        -38.59453 -10.60225
           D26       -160.63163-131.89116
           D27         83.23989 111.29706
           D28         81.22962 109.51884
           D29        -40.80747 -11.77008
           D30       -156.93595-128.58185
           D31         43.55746  36.34832
           D32        -77.38122 -83.34097
           D33        162.01707 155.04360
           D34        165.37684 158.40845
           D35         44.43815  38.71917
           D36        -76.16355 -82.89626
           D37        -73.52578 -81.27956
           D38        165.53553 159.03115
           D39         44.93383  37.41572
 GradGradGradGradGradGradGradGradGradGradGradGradGradGradGradGradGradGrad

                          Input orientation:                          
 ---------------------------------------------------------------------
 Center     Atomic      Atomic             Coordinates (Angstroms)
 Number     Number       Type             X           Y           Z
 ---------------------------------------------------------------------
      1          7           0        0.580668    0.358912    0.108578
      2          1           0       -0.100115    0.834964    0.701981
      3          6           0        1.835418    1.114126    0.032117
      4          1           0        2.193152    1.444450    1.022731
      5          1           0        1.718201    2.000652   -0.598312
      6          6           0        2.810799    0.074162   -0.558371
      7          1           0        3.804188    0.166563   -0.110442
      8          1           0        2.923404    0.213333   -1.636352
      9          6           0        2.152856   -1.293587   -0.242057
     10          1           0        2.847840   -2.005956    0.211559
     11          1           0        1.749432   -1.744366   -1.151767
     12          6           0        1.001957   -0.916969    0.690972
     13          1           0        1.367953   -0.818456    1.728969
     14          1           0        0.181248   -1.640830    0.683394
 ---------------------------------------------------------------------
                    Distance matrix (angstroms):
                    1          2          3          4          5
     1  N    0.000000
     2  H    1.020891   0.000000
     3  C    1.466490   2.067109   0.000000
     4  H    2.148063   2.394458   1.103813   0.000000
     5  H    2.118723   2.521084   1.094125   1.778404   0.000000
     6  C    2.345077   3.262013   1.543233   2.181527   2.215113
     7  H    3.236672   4.043560   2.189578   2.347875   2.820149
     8  H    2.924788   3.872454   2.186077   3.019875   2.392604
     9  C    2.307699   3.240034   2.443976   3.016316   3.341834
    10  H    3.277693   4.123321   3.285134   3.604430   4.240858
    11  H    2.716294   3.675616   3.095149   3.885084   3.785822
    12  C    1.464424   2.069771   2.292181   2.665579   3.269215
    13  H    2.152133   2.437976   2.613944   2.510074   3.672367
    14  H    2.118706   2.491800   3.278753   3.698900   4.155164
                    6          7          8          9         10
     6  C    0.000000
     7  H    1.093618   0.000000
     8  H    1.092746   1.762490   0.000000
     9  C    1.550381   2.208225   2.192854   0.000000
    10  H    2.218345   2.395438   2.888897   1.093727   0.000000
    11  H    2.187616   2.992996   2.333584   1.092485   1.770194
    12  C    2.411453   3.109470   3.222728   1.528710   2.196136
    13  H    2.847893   3.207637   3.848298   2.174113   2.429558
    14  H    3.376050   4.125838   4.042098   2.205510   2.732518
                   11         12         13         14
    11  H    0.000000
    12  C    2.153831   0.000000
    13  H    3.049831   1.105032   0.000000
    14  H    2.416141   1.094347   1.782637   0.000000
 Stoichiometry    C4H9N
 Framework group  C1[X(C4H9N)]
 Deg. of freedom    36
 Full point group                 C1      NOp   1
 Largest Abelian subgroup         C1      NOp   1
 Largest concise Abelian subgroup C1      NOp   1
                         Standard orientation:                         
 ---------------------------------------------------------------------
 Center     Atomic      Atomic             Coordinates (Angstroms)
 Number     Number       Type             X           Y           Z
 ---------------------------------------------------------------------
      1          7           0        0.364128   -1.091327    0.386403
      2          1           0        0.694314   -2.021363    0.125197
      3          6           0        1.241704   -0.047565   -0.153053
      4          1           0        1.480013   -0.202684   -1.219613
      5          1           0        2.183837   -0.006241    0.401733
      6          6           0        0.383021    1.223842    0.013550
      7          1           0        0.515609    1.902855   -0.833423
      8          1           0        0.665017    1.769034    0.917617
      9          6           0       -1.070964    0.695533    0.116007
     10          1           0       -1.762876    1.220520   -0.548738
     11          1           0       -1.442702    0.792181    1.138746
     12          6           0       -0.926890   -0.785676   -0.233587
     13          1           0       -0.922559   -0.920923   -1.330302
     14          1           0       -1.720774   -1.410899    0.186460
 ---------------------------------------------------------------------
 Rotational constants (GHZ):           6.9230578           6.8358314           3.9688546

 **********************************************************************

            Population analysis using the SCF density.

 **********************************************************************

 Orbital symmetries:
       Occupied  (A) (A) (A) (A) (A) (A) (A) (A) (A) (A) (A) (A)
                 (A) (A) (A) (A) (A) (A) (A) (A)
       Virtual   (A) (A) (A) (A) (A) (A) (A) (A) (A) (A) (A) (A)
                 (A) (A) (A) (A) (A) (A) (A) (A) (A) (A) (A) (A)
                 (A) (A) (A) (A) (A) (A) (A) (A) (A) (A) (A) (A)
                 (A) (A) (A) (A) (A) (A) (A) (A) (A) (A) (A) (A)
                 (A) (A) (A) (A) (A) (A) (A) (A) (A) (A) (A) (A)
                 (A) (A) (A) (A) (A) (A) (A) (A) (A) (A) (A) (A)
                 (A)
 The electronic state is 1-A.
 Alpha  occ. eigenvalues --  -15.54011 -11.24224 -11.24154 -11.21592 -11.21461
 Alpha  occ. eigenvalues --   -1.21713  -1.01792  -0.96847  -0.80407  -0.77756
 Alpha  occ. eigenvalues --   -0.68489  -0.65419  -0.58615  -0.55372  -0.50962
 Alpha  occ. eigenvalues --   -0.50321  -0.47820  -0.46847  -0.45474  -0.36875
 Alpha virt. eigenvalues --    0.22320   0.25227   0.28455   0.29315   0.30783
 Alpha virt. eigenvalues --    0.32932   0.34134   0.34355   0.36279   0.37577
 Alpha virt. eigenvalues --    0.40722   0.41226   0.46962   0.51570   0.73378
 Alpha virt. eigenvalues --    0.75535   0.77123   0.78958   0.79543   0.86399
 Alpha virt. eigenvalues --    0.91787   0.92468   0.93838   0.96120   0.99905
 Alpha virt. eigenvalues --    1.04208   1.10190   1.11589   1.12440   1.14343
 Alpha virt. eigenvalues --    1.15697   1.16529   1.18080   1.21170   1.21814
 Alpha virt. eigenvalues --    1.24338   1.25413   1.29823   1.51617   1.52335
 Alpha virt. eigenvalues --    1.60889   1.65605   1.70572   1.87251   1.93081
 Alpha virt. eigenvalues --    2.10602   2.11527   2.15354   2.21822   2.23790
 Alpha virt. eigenvalues --    2.30582   2.31585   2.34577   2.40477   2.44045
 Alpha virt. eigenvalues --    2.47339   2.51423   2.58421   2.63501   2.71783
 Alpha virt. eigenvalues --    2.73024   2.82412   2.89265   2.91229   3.02248
 Alpha virt. eigenvalues --    3.03274   3.04520   3.22760   4.35150   4.61624
 Alpha virt. eigenvalues --    4.68250   4.86946   5.05760
          Condensed to atoms (all electrons):
               1          2          3          4          5          6
     1  N    7.141703   0.326880   0.273292  -0.054709  -0.038749  -0.068427
     2  H    0.326880   0.402849  -0.033302  -0.004298   0.000076   0.005946
     3  C    0.273292  -0.033302   4.957235   0.402660   0.405541   0.341780
     4  H   -0.054709  -0.004298   0.402660   0.603166  -0.037437  -0.052051
     5  H   -0.038749   0.000076   0.405541  -0.037437   0.524054  -0.028760
     6  C   -0.068427   0.005946   0.341780  -0.052051  -0.028760   5.144320
     7  H    0.003408  -0.000179  -0.037567  -0.003215   0.001405   0.396185
     8  H    0.001960  -0.000121  -0.035462   0.003662  -0.004801   0.399924
     9  C   -0.081309   0.006140  -0.064264   0.001708   0.003216   0.334004
    10  H    0.004026  -0.000146   0.003625   0.000127  -0.000068  -0.034588
    11  H    0.001816  -0.000181   0.002674   0.000016  -0.000185  -0.037394
    12  C    0.271651  -0.033187  -0.086726  -0.002732   0.005876  -0.067685
    13  H   -0.054701  -0.003890  -0.001539   0.006932  -0.000361  -0.002307
    14  H   -0.037768  -0.000264   0.005508  -0.000357  -0.000067   0.004327
               7          8          9         10         11         12
     1  N    0.003408   0.001960  -0.081309   0.004026   0.001816   0.271651
     2  H   -0.000179  -0.000121   0.006140  -0.000146  -0.000181  -0.033187
     3  C   -0.037567  -0.035462  -0.064264   0.003625   0.002674  -0.086726
     4  H   -0.003215   0.003662   0.001708   0.000127   0.000016  -0.002732
     5  H    0.001405  -0.004801   0.003216  -0.000068  -0.000185   0.005876
     6  C    0.396185   0.399924   0.334004  -0.034588  -0.037394  -0.067685
     7  H    0.538611  -0.027045  -0.035271  -0.004448   0.002940   0.002611
     8  H   -0.027045   0.523945  -0.035152   0.002007  -0.005922   0.003885
     9  C   -0.035271  -0.035152   5.120258   0.395671   0.399875   0.350878
    10  H   -0.004448   0.002007   0.395671   0.535198  -0.025451  -0.036453
    11  H    0.002940  -0.005922   0.399875  -0.025451   0.524270  -0.038358
    12  C    0.002611   0.003885   0.350878  -0.036453  -0.038358   4.968713
    13  H    0.000650  -0.000016  -0.050884  -0.001298   0.004347   0.398208
    14  H   -0.000088  -0.000139  -0.028195   0.000358  -0.004686   0.404808
              13         14
     1  N   -0.054701  -0.037768
     2  H   -0.003890  -0.000264
     3  C   -0.001539   0.005508
     4  H    0.006932  -0.000357
     5  H   -0.000361  -0.000067
     6  C   -0.002307   0.004327
     7  H    0.000650  -0.000088
     8  H   -0.000016  -0.000139
     9  C   -0.050884  -0.028195
    10  H   -0.001298   0.000358
    11  H    0.004347  -0.004686
    12  C    0.398208   0.404808
    13  H    0.607931  -0.036828
    14  H   -0.036828   0.524606
 Mulliken charges:
               1
     1  N   -0.689074
     2  H    0.333676
     3  C   -0.133453
     4  H    0.136527
     5  H    0.170258
     6  C   -0.335275
     7  H    0.162005
     8  H    0.173276
     9  C   -0.316675
    10  H    0.161440
    11  H    0.176240
    12  C   -0.141488
    13  H    0.133756
    14  H    0.168787
 Sum of Mulliken charges =  -0.00000
 Mulliken charges with hydrogens summed into heavy atoms:
               1
     1  N   -0.355397
     3  C    0.173332
     6  C    0.000007
     9  C    0.021004
    12  C    0.161054
 Electronic spatial extent (au):  <R**2>=            386.9866
 Charge=             -0.0000 electrons
 Dipole moment (field-independent basis, Debye):
    X=              0.0693    Y=             -0.0814    Z=             -1.1612  Tot=              1.1661
 Quadrupole moment (field-independent basis, Debye-Ang):
   XX=            -31.5133   YY=            -31.0716   ZZ=            -34.1760
   XY=             -0.2326   XZ=             -0.3711   YZ=              1.4814
 Traceless Quadrupole moment (field-independent basis, Debye-Ang):
   XX=              0.7403   YY=              1.1820   ZZ=             -1.9224
   XY=             -0.2326   XZ=             -0.3711   YZ=              1.4814
 Octapole moment (field-independent basis, Debye-Ang**2):
  XXX=              1.8272  YYY=             -9.2061  ZZZ=             -1.2815  XYY=              1.8144
  XXY=             -2.2896  XXZ=              1.1679  XZZ=             -0.5064  YZZ=              2.3221
  YYZ=             -1.3827  XYZ=              1.0711
 Hexadecapole moment (field-independent basis, Debye-Ang**3):
 XXXX=           -226.4199 YYYY=           -207.0805 ZZZZ=            -72.9328 XXXY=             -0.8659
 XXXZ=              2.2052 YYYX=             -5.7608 YYYZ=              0.1869 ZZZX=             -1.3373
 ZZZY=              2.9002 XXYY=            -72.5781 XXZZ=            -49.3160 YYZZ=            -49.9499
 XXYZ=             -1.1750 YYXZ=             -0.5022 ZZXY=              0.3208
 N-N= 1.907415146704D+02 E-N=-8.735997100966D+02  KE= 2.108332248672D+02
 1\1\GINC-C401-103\Scan\RMP2-FC\6-31G(d)\C4H9N1\TG455515\02-Apr-2021\0\
 \# opt=modredundant MP2/6-31g(d) Geom=PrintInputOrient\\PRLD Dihedral/
 Improper Scan\\0,1\N,0.5806679659,0.3589118545,0.1085781522\H,-0.10011
 53817,0.8349643468,0.701981094\C,1.8354183493,1.1141260849,0.032117472
 5\H,2.1931522408,1.4444504347,1.0227314988\H,1.7182010689,2.0006521196
 ,-0.5983119398\C,2.8107987172,0.0741624478,-0.5583705893\H,3.804187897
 7,0.1665628473,-0.1104420882\H,2.923403574,0.2133327511,-1.6363524514\
 C,2.1528559637,-1.2935870169,-0.2420572141\H,2.8478396771,-2.005955541
 6,0.2115593425\H,1.7494321398,-1.7443655255,-1.1517669731\C,1.00195675
 88,-0.9169686612,0.6909715029\H,1.3679525336,-0.818455997,1.7289685117
 \H,0.1812480942,-1.6408301141,0.6833936452\\Version=ES64L-G16RevA.03\S
 tate=1-A\HF=-211.1432096,-211.1429398,-211.1426179,-211.1425972,-211.1
 429625,-211.1434244,-211.1432447\MP2=-211.8273514,-211.8271963,-211.82
 65834,-211.8260552,-211.8259617,-211.8262516,-211.8269213\RMSD=5.092e-
 09,4.710e-09,2.951e-09,3.602e-09,2.599e-09,3.032e-09,8.768e-09\PG=C01 
 [X(C4H9N1)]\\@


 ABSOLUTISM, OBSOLETISM -- IF IT WORKS, IT'S OUT OF DATE

                          -- STAFFORD BEER
 Job cpu time:       0 days  0 hours 20 minutes 30.7 seconds.
 Elapsed time:       0 days  0 hours 20 minutes 14.4 seconds.
 File lengths (MBytes):  RWF=     10 Int=      0 D2E=      0 Chk=      3 Scr=      1
 Normal termination of Gaussian 16 at Fri Apr  2 19:46:14 2021.
