 Entering Gaussian System, Link 0=g16
 Initial command:
 /home1/apps/gaussian/16rA.03/g16/l1.exe "/tmp/Gau-82205.inp" -scrdir="/tmp/"
 Entering Link 1 = /home1/apps/gaussian/16rA.03/g16/l1.exe PID=     82206.
  
 Copyright (c) 1988,1990,1992,1993,1995,1998,2003,2009,2016,
            Gaussian, Inc.  All Rights Reserved.
  
 This is part of the Gaussian(R) 16 program.  It is based on
 the Gaussian(R) 09 system (copyright 2009, Gaussian, Inc.),
 the Gaussian(R) 03 system (copyright 2003, Gaussian, Inc.),
 the Gaussian(R) 98 system (copyright 1998, Gaussian, Inc.),
 the Gaussian(R) 94 system (copyright 1995, Gaussian, Inc.),
 the Gaussian 92(TM) system (copyright 1992, Gaussian, Inc.),
 the Gaussian 90(TM) system (copyright 1990, Gaussian, Inc.),
 the Gaussian 88(TM) system (copyright 1988, Gaussian, Inc.),
 the Gaussian 86(TM) system (copyright 1986, Carnegie Mellon
 University), and the Gaussian 82(TM) system (copyright 1983,
 Carnegie Mellon University). Gaussian is a federally registered
 trademark of Gaussian, Inc.
  
 This software contains proprietary and confidential information,
 including trade secrets, belonging to Gaussian, Inc.
  
 This software is provided under written license and may be
 used, copied, transmitted, or stored only in accord with that
 written license.
  
 The following legend is applicable only to US Government
 contracts under FAR:
  
                    RESTRICTED RIGHTS LEGEND
  
 Use, reproduction and disclosure by the US Government is
 subject to restrictions as set forth in subparagraphs (a)
 and (c) of the Commercial Computer Software - Restricted
 Rights clause in FAR 52.227-19.
  
 Gaussian, Inc.
 340 Quinnipiac St., Bldg. 40, Wallingford CT 06492
  
  
 ---------------------------------------------------------------
 Warning -- This program may not be used in any manner that
 competes with the business of Gaussian, Inc. or will provide
 assistance to any competitor of Gaussian, Inc.  The licensee
 of this program is prohibited from giving any competitor of
 Gaussian, Inc. access to this program.  By using this program,
 the user acknowledges that Gaussian, Inc. is engaged in the
 business of creating and licensing software in the field of
 computational chemistry and represents and warrants to the
 licensee that it is not a competitor of Gaussian, Inc. and that
 it will not use this program in any manner prohibited above.
 ---------------------------------------------------------------
  

 Cite this work as:
 Gaussian 16, Revision A.03,
 M. J. Frisch, G. W. Trucks, H. B. Schlegel, G. E. Scuseria, 
 M. A. Robb, J. R. Cheeseman, G. Scalmani, V. Barone, 
 G. A. Petersson, H. Nakatsuji, X. Li, M. Caricato, A. V. Marenich, 
 J. Bloino, B. G. Janesko, R. Gomperts, B. Mennucci, H. P. Hratchian, 
 J. V. Ortiz, A. F. Izmaylov, J. L. Sonnenberg, D. Williams-Young, 
 F. Ding, F. Lipparini, F. Egidi, J. Goings, B. Peng, A. Petrone, 
 T. Henderson, D. Ranasinghe, V. G. Zakrzewski, J. Gao, N. Rega, 
 G. Zheng, W. Liang, M. Hada, M. Ehara, K. Toyota, R. Fukuda, 
 J. Hasegawa, M. Ishida, T. Nakajima, Y. Honda, O. Kitao, H. Nakai, 
 T. Vreven, K. Throssell, J. A. Montgomery, Jr., J. E. Peralta, 
 F. Ogliaro, M. J. Bearpark, J. J. Heyd, E. N. Brothers, K. N. Kudin, 
 V. N. Staroverov, T. A. Keith, R. Kobayashi, J. Normand, 
 K. Raghavachari, A. P. Rendell, J. C. Burant, S. S. Iyengar, 
 J. Tomasi, M. Cossi, J. M. Millam, M. Klene, C. Adamo, R. Cammi, 
 J. W. Ochterski, R. L. Martin, K. Morokuma, O. Farkas, 
 J. B. Foresman, and D. J. Fox, Gaussian, Inc., Wallingford CT, 2016.
 
 ******************************************
 Gaussian 16:  ES64L-G16RevA.03 25-Dec-2016
                 2-Apr-2021 
 ******************************************
 %chk=PRLD.scan1.pos.chk
 %nproc=1
 Will use up to    1 processors via shared memory.
 %mem=1GB
 -----------------------------------------------------
 # opt=modredundant MP2/6-31g(d) Geom=PrintInputOrient
 -----------------------------------------------------
 1/18=120,19=15,38=1/1,3;
 2/9=2110,12=2,17=6,18=5,40=1/2;
 3/5=1,6=6,7=1,11=9,25=1,30=1,71=1/1,2,3;
 4//1;
 5/5=2,38=5/2;
 8/6=4,10=2/1;
 9/15=2,16=-3/6;
 10/5=1/2;
 6/7=2,8=2,9=2,10=2/1;
 7/12=2/1,2,3,16;
 1/18=20,19=15/3(2);
 2/9=2110/2;
 99//99;
 2/9=2110/2;
 3/5=1,6=6,7=1,11=9,25=1,30=1,71=1/1,2,3;
 4/5=5,16=3,69=1/1;
 5/5=2,38=5/2;
 8/6=4,10=2/1;
 9/15=2,16=-3/6;
 10/5=1/2;
 7/12=2/1,2,3,16;
 1/18=20,19=15/3(-8);
 2/9=2110/2;
 6/7=2,8=2,9=2,10=2/1;
 99//99;
 ---------------------------
 PRLD Dihedral/Improper Scan
 ---------------------------
 Symbolic Z-matrix:
 Charge =  0 Multiplicity = 1
 N1                    0.844     0.456     0.923 
 H2                    1.372     0.495     1.798 
 C3                    1.643     1.125    -0.113 
 H4                    2.        2.097     0.243 
 H5                    0.987     1.307    -0.971 
 C6                    2.779     0.153    -0.504 
 H7                    3.689     0.384     0.059 
 H8                    3.031     0.222    -1.566 
 C9                    2.231    -1.24     -0.112 
 H10                   2.866    -1.707     0.647 
 H11                   2.185    -1.928    -0.962 
 C12                   0.83     -0.941     0.469 
 H13                   0.542    -1.609     1.286 
 H14                   0.068    -1.027    -0.314 
 
 The following ModRedundant input section has been read:
 D       6       9      12       1 S   6 15.000                                
 

 GradGradGradGradGradGradGradGradGradGradGradGradGradGradGradGradGradGrad
 Berny optimization.
 Initialization pass.
                           ----------------------------
                           !    Initial Parameters    !
                           ! (Angstroms and Degrees)  !
 --------------------------                            --------------------------
 ! Name  Definition              Value          Derivative Info.                !
 --------------------------------------------------------------------------------
 ! R1    R(1,2)                  1.0227         estimate D2E/DX2                !
 ! R2    R(1,3)                  1.4694         estimate D2E/DX2                !
 ! R3    R(1,12)                 1.469          estimate D2E/DX2                !
 ! R4    R(3,4)                  1.095          estimate D2E/DX2                !
 ! R5    R(3,5)                  1.0953         estimate D2E/DX2                !
 ! R6    R(3,6)                  1.5454         estimate D2E/DX2                !
 ! R7    R(6,7)                  1.0947         estimate D2E/DX2                !
 ! R8    R(6,8)                  1.0937         estimate D2E/DX2                !
 ! R9    R(6,9)                  1.5474         estimate D2E/DX2                !
 ! R10   R(9,10)                 1.0943         estimate D2E/DX2                !
 ! R11   R(9,11)                 1.0945         estimate D2E/DX2                !
 ! R12   R(9,12)                 1.5459         estimate D2E/DX2                !
 ! R13   R(12,13)                1.0939         estimate D2E/DX2                !
 ! R14   R(12,14)                1.096          estimate D2E/DX2                !
 ! A1    A(2,1,3)              107.7654         estimate D2E/DX2                !
 ! A2    A(2,1,12)             107.7946         estimate D2E/DX2                !
 ! A3    A(3,1,12)             102.7239         estimate D2E/DX2                !
 ! A4    A(1,3,4)              110.6221         estimate D2E/DX2                !
 ! A5    A(1,3,5)              107.5946         estimate D2E/DX2                !
 ! A6    A(1,3,6)              106.9617         estimate D2E/DX2                !
 ! A7    A(4,3,5)              107.6053         estimate D2E/DX2                !
 ! A8    A(4,3,6)              113.6363         estimate D2E/DX2                !
 ! A9    A(5,3,6)              110.279          estimate D2E/DX2                !
 ! A10   A(3,6,7)              110.3782         estimate D2E/DX2                !
 ! A11   A(3,6,8)              112.0481         estimate D2E/DX2                !
 ! A12   A(3,6,9)              103.9924         estimate D2E/DX2                !
 ! A13   A(7,6,8)              107.1301         estimate D2E/DX2                !
 ! A14   A(7,6,9)              110.7358         estimate D2E/DX2                !
 ! A15   A(8,6,9)              112.6059         estimate D2E/DX2                !
 ! A16   A(6,9,10)             110.7565         estimate D2E/DX2                !
 ! A17   A(6,9,11)             112.5829         estimate D2E/DX2                !
 ! A18   A(6,9,12)             104.0073         estimate D2E/DX2                !
 ! A19   A(10,9,11)            107.145          estimate D2E/DX2                !
 ! A20   A(10,9,12)            110.3511         estimate D2E/DX2                !
 ! A21   A(11,9,12)            112.0469         estimate D2E/DX2                !
 ! A22   A(1,12,9)             106.9451         estimate D2E/DX2                !
 ! A23   A(1,12,13)            110.635          estimate D2E/DX2                !
 ! A24   A(1,12,14)            107.581          estimate D2E/DX2                !
 ! A25   A(9,12,13)            113.6523         estimate D2E/DX2                !
 ! A26   A(9,12,14)            110.2689         estimate D2E/DX2                !
 ! A27   A(13,12,14)           107.615          estimate D2E/DX2                !
 ! D1    D(2,1,3,4)            -48.7385         estimate D2E/DX2                !
 ! D2    D(2,1,3,5)           -166.0198         estimate D2E/DX2                !
 ! D3    D(2,1,3,6)             75.4998         estimate D2E/DX2                !
 ! D4    D(12,1,3,4)          -162.4            estimate D2E/DX2                !
 ! D5    D(12,1,3,5)            80.3186         estimate D2E/DX2                !
 ! D6    D(12,1,3,6)           -38.1617         estimate D2E/DX2                !
 ! D7    D(2,1,12,9)           -75.5014         estimate D2E/DX2                !
 ! D8    D(2,1,12,13)           48.7538         estimate D2E/DX2                !
 ! D9    D(2,1,12,14)          166.0459         estimate D2E/DX2                !
 ! D10   D(3,1,12,9)            38.1387         estimate D2E/DX2                !
 ! D11   D(3,1,12,13)          162.3939         estimate D2E/DX2                !
 ! D12   D(3,1,12,14)          -80.314          estimate D2E/DX2                !
 ! D13   D(1,3,6,7)            -95.3684         estimate D2E/DX2                !
 ! D14   D(1,3,6,8)            145.3276         estimate D2E/DX2                !
 ! D15   D(1,3,6,9)             23.4354         estimate D2E/DX2                !
 ! D16   D(4,3,6,7)             27.004          estimate D2E/DX2                !
 ! D17   D(4,3,6,8)            -92.2999         estimate D2E/DX2                !
 ! D18   D(4,3,6,9)            145.8078         estimate D2E/DX2                !
 ! D19   D(5,3,6,7)            147.9132         estimate D2E/DX2                !
 ! D20   D(5,3,6,8)             28.6092         estimate D2E/DX2                !
 ! D21   D(5,3,6,9)            -93.2831         estimate D2E/DX2                !
 ! D22   D(3,6,9,10)          -118.5629         estimate D2E/DX2                !
 ! D23   D(3,6,9,11)           121.4993         estimate D2E/DX2                !
 ! D24   D(3,6,9,12)            -0.0176         estimate D2E/DX2                !
 ! D25   D(7,6,9,10)            -0.0044         estimate D2E/DX2                !
 ! D26   D(7,6,9,11)          -119.9421         estimate D2E/DX2                !
 ! D27   D(7,6,9,12)           118.541          estimate D2E/DX2                !
 ! D28   D(8,6,9,10)           119.9156         estimate D2E/DX2                !
 ! D29   D(8,6,9,11)            -0.0222         estimate D2E/DX2                !
 ! D30   D(8,6,9,12)          -121.5391         estimate D2E/DX2                !
 ! D31   D(6,9,12,1)           -23.4104         Scan                            !
 ! D32   D(6,9,12,13)         -145.7976         estimate D2E/DX2                !
 ! D33   D(6,9,12,14)           93.2771         estimate D2E/DX2                !
 ! D34   D(10,9,12,1)           95.4127         estimate D2E/DX2                !
 ! D35   D(10,9,12,13)         -26.9744         estimate D2E/DX2                !
 ! D36   D(10,9,12,14)        -147.8998         estimate D2E/DX2                !
 ! D37   D(11,9,12,1)         -145.2836         estimate D2E/DX2                !
 ! D38   D(11,9,12,13)          92.3293         estimate D2E/DX2                !
 ! D39   D(11,9,12,14)         -28.5961         estimate D2E/DX2                !
 --------------------------------------------------------------------------------
 Trust Radius=3.00D-01 FncErr=1.00D-07 GrdErr=1.00D-07 EigMax=2.50D+02 EigMin=1.00D-04
 Number of optimizations in scan=   7
 Number of steps in this run=     90 maximum allowed number of steps=    100.
 GradGradGradGradGradGradGradGradGradGradGradGradGradGradGradGradGradGrad

                          Input orientation:                          
 ---------------------------------------------------------------------
 Center     Atomic      Atomic             Coordinates (Angstroms)
 Number     Number       Type             X           Y           Z
 ---------------------------------------------------------------------
      1          7           0        0.844000    0.456000    0.923000
      2          1           0        1.372000    0.495000    1.798000
      3          6           0        1.643000    1.125000   -0.113000
      4          1           0        2.000000    2.097000    0.243000
      5          1           0        0.987000    1.307000   -0.971000
      6          6           0        2.779000    0.153000   -0.504000
      7          1           0        3.689000    0.384000    0.059000
      8          1           0        3.031000    0.222000   -1.566000
      9          6           0        2.231000   -1.240000   -0.112000
     10          1           0        2.866000   -1.707000    0.647000
     11          1           0        2.185000   -1.928000   -0.962000
     12          6           0        0.830000   -0.941000    0.469000
     13          1           0        0.542000   -1.609000    1.286000
     14          1           0        0.068000   -1.027000   -0.314000
 ---------------------------------------------------------------------
                    Distance matrix (angstroms):
                    1          2          3          4          5
     1  N    0.000000
     2  H    1.022707   0.000000
     3  C    1.469441   2.030335   0.000000
     4  H    2.119343   2.319227   1.094974   0.000000
     5  H    2.081318   2.911173   1.095274   1.767502   0.000000
     6  C    2.423296   2.719525   1.545368   2.223508   2.181987
     7  H    2.974173   2.899126   2.182838   2.412664   3.035397
     8  H    3.321573   3.760759   2.202989   2.801975   2.389390
     9  C    2.423099   2.719597   2.437000   3.363771   2.961862
    10  H    2.973757   2.899248   3.177035   3.922192   3.902917
    11  H    3.321891   3.761582   3.214868   4.205577   3.449712
    12  C    1.468986   2.030296   2.295223   3.263345   2.674276
    13  H    2.118301   2.319021   3.262539   4.116801   3.714180
    14  H    2.081258   2.911605   2.674347   3.715138   2.593023
                    6          7          8          9         10
     6  C    0.000000
     7  H    1.094728   0.000000
     8  H    1.093668   1.760634   0.000000
     9  C    1.547390   2.189151   2.211687   0.000000
    10  H    2.189057   2.322790   2.940346   1.094255   0.000000
    11  H    2.212049   2.941054   2.388102   1.094514   1.761103
    12  C    2.437656   3.177673   3.215306   1.545886   2.182598
    13  H    3.363467   3.921886   4.204948   2.223350   2.412240
    14  H    2.962773   3.904061   3.450634   2.182829   3.035577
                   11         12         13         14
    11  H    0.000000
    12  C    2.204077   0.000000
    13  H    2.802626   1.093918   0.000000
    14  H    2.390271   1.095960   1.767314   0.000000
 Stoichiometry    C4H9N
 Framework group  C1[X(C4H9N)]
 Deg. of freedom    36
 Full point group                 C1      NOp   1
 Largest Abelian subgroup         C1      NOp   1
 Largest concise Abelian subgroup C1      NOp   1
                         Standard orientation:                         
 ---------------------------------------------------------------------
 Center     Atomic      Atomic             Coordinates (Angstroms)
 Number     Number       Type             X           Y           Z
 ---------------------------------------------------------------------
      1          7           0       -0.009754   -1.267896   -0.216048
      2          1           0       -0.009609   -1.307741   -1.237979
      3          6           0        1.144047   -0.459296    0.201285
      4          1           0        2.052841   -0.790293   -0.312042
      5          1           0        1.291688   -0.622098    1.274281
      6          6           0        0.781546    1.017994   -0.071425
      7          1           0        1.171547    1.332796   -1.044681
      8          1           0        1.207027    1.690375    0.678894
      9          6           0       -0.765800    1.029688   -0.071443
     10          1           0       -1.151178    1.350244   -1.044131
     11          1           0       -1.181004    1.708768    0.679833
     12          6           0       -1.151114   -0.442432    0.200878
     13          1           0       -2.063843   -0.759288   -0.312137
     14          1           0       -1.301266   -0.603214    1.274532
 ---------------------------------------------------------------------
 Rotational constants (GHZ):           6.8866106           6.6914801           3.9136725
 Standard basis: 6-31G(d) (6D, 7F)
 There are    93 symmetry adapted cartesian basis functions of A   symmetry.
 There are    93 symmetry adapted basis functions of A   symmetry.
    93 basis functions,   176 primitive gaussians,    93 cartesian basis functions
    20 alpha electrons       20 beta electrons
       nuclear repulsion energy       190.0136865772 Hartrees.
 NAtoms=   14 NActive=   14 NUniq=   14 SFac= 1.00D+00 NAtFMM=   60 NAOKFM=F Big=F
 Integral buffers will be    131072 words long.
 Raffenetti 1 integral format.
 Two-electron integral symmetry is turned on.
 One-electron integrals computed using PRISM.
 NBasis=    93 RedAO= T EigKep=  3.15D-03  NBF=    93
 NBsUse=    93 1.00D-06 EigRej= -1.00D+00 NBFU=    93
 ExpMin= 1.61D-01 ExpMax= 4.17D+03 ExpMxC= 6.27D+02 IAcc=3 IRadAn=         5 AccDes= 0.00D+00
 Harris functional with IExCor=  205 and IRadAn=       5 diagonalized for initial guess.
 HarFok:  IExCor=  205 AccDes= 0.00D+00 IRadAn=         5 IDoV= 1 UseB2=F ITyADJ=14
 ICtDFT=  3500011 ScaDFX=  1.000000  1.000000  1.000000  1.000000
 FoFCou: FMM=F IPFlag=           0 FMFlag=      100000 FMFlg1=           0
         NFxFlg=           0 DoJE=T BraDBF=F KetDBF=T FulRan=T
         wScrn=  0.000000 ICntrl=       500 IOpCl=  0 I1Cent=   200000004 NGrid=           0
         NMat0=    1 NMatS0=      1 NMatT0=    0 NMatD0=    1 NMtDS0=    0 NMtDT0=    0
 Petite list used in FoFCou.
 Keep R1 ints in memory in canonical form, NReq=10436288.
 Requested convergence on RMS density matrix=1.00D-08 within 128 cycles.
 Requested convergence on MAX density matrix=1.00D-06.
 Requested convergence on             energy=1.00D-06.
 No special actions if energy rises.
 SCF Done:  E(RHF) =  -211.143200098     A.U. after   12 cycles
            NFock= 12  Conv=0.39D-08     -V/T= 2.0015
 ExpMin= 1.61D-01 ExpMax= 4.17D+03 ExpMxC= 6.27D+02 IAcc=3 IRadAn=         5 AccDes= 0.00D+00
 HarFok:  IExCor=  205 AccDes= 0.00D+00 IRadAn=         5 IDoV=-2 UseB2=F ITyADJ=14
 ICtDFT= 12500011 ScaDFX=  1.000000  1.000000  1.000000  1.000000
 Range of M.O.s used for correlation:     6    93
 NBasis=    93 NAE=    20 NBE=    20 NFC=     5 NFV=     0
 NROrb=     88 NOA=    15 NOB=    15 NVA=    73 NVB=    73
 Fully direct method using O(ONN) memory.
 JobTyp=1 Pass  1:  I=   6 to  20 NPSUse=  1 ParTrn=F ParDer=F DoDerP=T.
 Spin components of T(2) and E(2):
     alpha-alpha T2 =       0.2790801328D-01 E2=     -0.8405127363D-01
     alpha-beta  T2 =       0.1679168201D+00 E2=     -0.5160463410D+00
     beta-beta   T2 =       0.2790801328D-01 E2=     -0.8405127363D-01
 ANorm=    0.1106224591D+01
 E2 =    -0.6841488883D+00 EUMP2 =    -0.21182734898599D+03
          IDoAtm=11111111111111
          Differentiating once with respect to electric field.
                with respect to dipole field.
          Differentiating once with respect to nuclear coordinates.
 Keep R1 ints in memory in canonical form, NReq=10438744.
          There are     1 degrees of freedom in the 1st order CPHF.  IDoFFX=0 NUNeed=     1.
 LinEq1:  Iter=  0 NonCon=     1 RMS=4.26D-03 Max=4.54D-02 NDo=     1
 AX will form     1 AO Fock derivatives at one time.
 LinEq1:  Iter=  1 NonCon=     1 RMS=1.43D-03 Max=1.40D-02 NDo=     1
 LinEq1:  Iter=  2 NonCon=     1 RMS=2.90D-04 Max=3.43D-03 NDo=     1
 LinEq1:  Iter=  3 NonCon=     1 RMS=5.58D-05 Max=4.08D-04 NDo=     1
 LinEq1:  Iter=  4 NonCon=     1 RMS=1.18D-05 Max=1.55D-04 NDo=     1
 LinEq1:  Iter=  5 NonCon=     1 RMS=4.47D-06 Max=3.98D-05 NDo=     1
 LinEq1:  Iter=  6 NonCon=     1 RMS=1.05D-06 Max=1.56D-05 NDo=     1
 LinEq1:  Iter=  7 NonCon=     1 RMS=1.91D-07 Max=1.83D-06 NDo=     1
 LinEq1:  Iter=  8 NonCon=     1 RMS=6.29D-08 Max=5.75D-07 NDo=     1
 LinEq1:  Iter=  9 NonCon=     1 RMS=1.37D-08 Max=1.24D-07 NDo=     1
 LinEq1:  Iter= 10 NonCon=     1 RMS=3.65D-09 Max=2.96D-08 NDo=     1
 LinEq1:  Iter= 11 NonCon=     1 RMS=6.11D-10 Max=7.96D-09 NDo=     1
 LinEq1:  Iter= 12 NonCon=     1 RMS=1.20D-10 Max=1.50D-09 NDo=     1
 LinEq1:  Iter= 13 NonCon=     0 RMS=1.91D-11 Max=1.76D-10 NDo=     1
 Linear equations converged to 1.000D-10 1.000D-09 after    13 iterations.
 End of Minotr F.D. properties file   721 does not exist.
 End of Minotr F.D. properties file   722 does not exist.
 End of Minotr F.D. properties file   788 does not exist.

 **********************************************************************

            Population analysis using the SCF density.

 **********************************************************************

 Orbital symmetries:
       Occupied  (A) (A) (A) (A) (A) (A) (A) (A) (A) (A) (A) (A)
                 (A) (A) (A) (A) (A) (A) (A) (A)
       Virtual   (A) (A) (A) (A) (A) (A) (A) (A) (A) (A) (A) (A)
                 (A) (A) (A) (A) (A) (A) (A) (A) (A) (A) (A) (A)
                 (A) (A) (A) (A) (A) (A) (A) (A) (A) (A) (A) (A)
                 (A) (A) (A) (A) (A) (A) (A) (A) (A) (A) (A) (A)
                 (A) (A) (A) (A) (A) (A) (A) (A) (A) (A) (A) (A)
                 (A) (A) (A) (A) (A) (A) (A) (A) (A) (A) (A) (A)
                 (A)
 The electronic state is 1-A.
 Alpha  occ. eigenvalues --  -15.54076 -11.24200 -11.24195 -11.21855 -11.21799
 Alpha  occ. eigenvalues --   -1.21663  -1.01921  -0.96899  -0.81410  -0.78334
 Alpha  occ. eigenvalues --   -0.67516  -0.63699  -0.58968  -0.58396  -0.50622
 Alpha  occ. eigenvalues --   -0.49289  -0.47912  -0.47626  -0.45740  -0.37275
 Alpha virt. eigenvalues --    0.21279   0.24725   0.28660   0.29029   0.30117
 Alpha virt. eigenvalues --    0.32558   0.33858   0.33958   0.36392   0.37738
 Alpha virt. eigenvalues --    0.40785   0.41401   0.48517   0.52442   0.72779
 Alpha virt. eigenvalues --    0.76267   0.76616   0.79767   0.80365   0.83842
 Alpha virt. eigenvalues --    0.90478   0.92044   0.92595   0.94963   1.01860
 Alpha virt. eigenvalues --    1.02452   1.09480   1.10988   1.12808   1.13150
 Alpha virt. eigenvalues --    1.15438   1.17173   1.19496   1.20850   1.21106
 Alpha virt. eigenvalues --    1.23722   1.24020   1.24151   1.49539   1.52543
 Alpha virt. eigenvalues --    1.59180   1.59545   1.69288   1.90975   2.00838
 Alpha virt. eigenvalues --    2.08684   2.12260   2.13555   2.19833   2.22442
 Alpha virt. eigenvalues --    2.29045   2.31775   2.35028   2.42288   2.43267
 Alpha virt. eigenvalues --    2.43361   2.51046   2.57266   2.59218   2.71449
 Alpha virt. eigenvalues --    2.73627   2.81719   2.90009   2.95574   2.97825
 Alpha virt. eigenvalues --    2.98905   3.02819   3.24107   4.34967   4.60737
 Alpha virt. eigenvalues --    4.68019   4.86124   5.04389
          Condensed to atoms (all electrons):
               1          2          3          4          5          6
     1  N    7.058662   0.327541   0.294203  -0.033404  -0.047556  -0.084999
     2  H    0.327541   0.433304  -0.042392  -0.005379   0.005680  -0.000687
     3  C    0.294203  -0.042392   4.977886   0.403748   0.406065   0.333688
     4  H   -0.033404  -0.005379   0.403748   0.521240  -0.026325  -0.035555
     5  H   -0.047556   0.005680   0.406065  -0.026325   0.544869  -0.053864
     6  C   -0.084999  -0.000687   0.333688  -0.035555  -0.053864   5.205597
     7  H    0.002637   0.000959  -0.038300  -0.004204   0.003824   0.396024
     8  H    0.004386  -0.000026  -0.032387   0.001335  -0.002463   0.391464
     9  C   -0.085089  -0.000691  -0.061393   0.003840  -0.000390   0.321496
    10  H    0.002649   0.000958   0.003257  -0.000161  -0.000013  -0.038489
    11  H    0.004384  -0.000026   0.002984  -0.000064   0.000166  -0.033459
    12  C    0.294002  -0.042370  -0.094809   0.006117  -0.001884  -0.061284
    13  H   -0.033416  -0.005385   0.006123  -0.000114  -0.000171   0.003829
    14  H   -0.047622   0.005682  -0.001900  -0.000171   0.003456  -0.000382
               7          8          9         10         11         12
     1  N    0.002637   0.004386  -0.085089   0.002649   0.004384   0.294002
     2  H    0.000959  -0.000026  -0.000691   0.000958  -0.000026  -0.042370
     3  C   -0.038300  -0.032387  -0.061393   0.003257   0.002984  -0.094809
     4  H   -0.004204   0.001335   0.003840  -0.000161  -0.000064   0.006117
     5  H    0.003824  -0.002463  -0.000390  -0.000013   0.000166  -0.001884
     6  C    0.396024   0.391464   0.321496  -0.038489  -0.033459  -0.061284
     7  H    0.542616  -0.025836  -0.038527  -0.006280   0.002599   0.003251
     8  H   -0.025836   0.527014  -0.033400   0.002596  -0.003631   0.002974
     9  C   -0.038527  -0.033400   5.205831   0.395992   0.391377   0.333836
    10  H   -0.006280   0.002596   0.395992   0.542443  -0.025801  -0.038327
    11  H    0.002599  -0.003631   0.391377  -0.025801   0.527314  -0.032361
    12  C    0.003251   0.002974   0.333836  -0.038327  -0.032361   4.977646
    13  H   -0.000161  -0.000063  -0.035505  -0.004188   0.001332   0.403827
    14  H   -0.000013   0.000165  -0.053852   0.003822  -0.002460   0.406044
              13         14
     1  N   -0.033416  -0.047622
     2  H   -0.005385   0.005682
     3  C    0.006123  -0.001900
     4  H   -0.000114  -0.000171
     5  H   -0.000171   0.003456
     6  C    0.003829  -0.000382
     7  H   -0.000161  -0.000013
     8  H   -0.000063   0.000165
     9  C   -0.035505  -0.053852
    10  H   -0.004188   0.003822
    11  H    0.001332  -0.002460
    12  C    0.403827   0.406044
    13  H    0.520894  -0.026326
    14  H   -0.026326   0.545162
 Mulliken charges:
               1
     1  N   -0.656379
     2  H    0.322831
     3  C   -0.156772
     4  H    0.169095
     5  H    0.168606
     6  C   -0.343380
     7  H    0.161410
     8  H    0.167872
     9  C   -0.343527
    10  H    0.161542
    11  H    0.167645
    12  C   -0.156662
    13  H    0.169324
    14  H    0.168395
 Sum of Mulliken charges =  -0.00000
 Mulliken charges with hydrogens summed into heavy atoms:
               1
     1  N   -0.333548
     3  C    0.180929
     6  C   -0.014098
     9  C   -0.014340
    12  C    0.181057
 Electronic spatial extent (au):  <R**2>=            390.2955
 Charge=             -0.0000 electrons
 Dipole moment (field-independent basis, Debye):
    X=              0.0108    Y=              1.4000    Z=             -0.6708  Tot=              1.5525
 Quadrupole moment (field-independent basis, Debye-Ang):
   XX=            -31.4430   YY=            -37.4386   ZZ=            -30.3356
   XY=             -0.0423   XZ=              0.0141   YZ=              1.4414
 Traceless Quadrupole moment (field-independent basis, Debye-Ang):
   XX=              1.6294   YY=             -4.3662   ZZ=              2.7368
   XY=             -0.0423   XZ=              0.0141   YZ=              1.4414
 Octapole moment (field-independent basis, Debye-Ang**2):
  XXX=             -0.0557  YYY=              7.4680  ZZZ=             -2.5630  XYY=              0.0925
  XXY=             -2.2856  XXZ=             -1.0006  XZZ=             -0.0165  YZZ=             -2.3218
  YYZ=             -1.4684  XYZ=             -0.0024
 Hexadecapole moment (field-independent basis, Debye-Ang**3):
 XXXX=           -226.6934 YYYY=           -248.7377 ZZZZ=            -65.8087 XXXY=              0.0072
 XXXZ=              0.0625 YYYX=             -0.1840 YYYZ=              5.7507 ZZZX=              0.0341
 ZZZY=              3.2304 XXYY=            -75.0449 XXZZ=            -48.5104 YYZZ=            -45.1589
 XXYZ=              2.0821 YYXZ=              0.0159 ZZXY=              0.0194
 N-N= 1.900136865772D+02 E-N=-8.720763185249D+02  KE= 2.108304137868D+02
 Calling FoFJK, ICntrl=  10002127 FMM=F ISym2X=0 I1Cent= 0 IOpClX= 0 NMat=1 NMatS=1 NMatT=0.
 ***** Axes restored to original set *****
 -------------------------------------------------------------------
 Center     Atomic                   Forces (Hartrees/Bohr)
 Number     Number              X              Y              Z
 -------------------------------------------------------------------
      1        7           0.000067218    0.000324295    0.000355385
      2        1          -0.000147219   -0.000035560   -0.000241089
      3        6           0.000758105    0.000773310    0.000735129
      4        1          -0.000288273   -0.000698691   -0.000271797
      5        1          -0.000308412    0.000033250   -0.000433494
      6        6          -0.000098258    0.000152779    0.000315185
      7        1          -0.000099833   -0.000004959   -0.000060197
      8        1           0.000110722   -0.000045813   -0.000301852
      9        6          -0.000507108   -0.000177978   -0.000275408
     10        1           0.000133008   -0.000094664    0.000103544
     11        1           0.000074374    0.000132703    0.000198827
     12        6           0.000296758   -0.000382461    0.000076681
     13        1           0.000028013    0.000050298   -0.000099903
     14        1          -0.000019094   -0.000026509   -0.000101012
 -------------------------------------------------------------------
 Cartesian Forces:  Max     0.000773310 RMS     0.000306300

 GradGradGradGradGradGradGradGradGradGradGradGradGradGradGradGradGradGrad
 Berny optimization.
 FormGI is forming the generalized inverse of G from B-inverse, IUseBI=4.
 Internal  Forces:  Max     0.000802576 RMS     0.000137397
 Search for a local minimum.
 Step number   1 out of a maximum of   90 on scan point     1 out of     7
 All quantities printed in internal units (Hartrees-Bohrs-Radians)
 Mixed Optimization -- En-DIIS/RFO-DIIS
 Second derivative matrix not updated -- first step.
 ITU=  0
     Eigenvalues ---    0.00565   0.01464   0.02311   0.02409   0.04343
     Eigenvalues ---    0.04575   0.04959   0.05414   0.05521   0.05728
     Eigenvalues ---    0.05917   0.06889   0.06892   0.08232   0.08733
     Eigenvalues ---    0.08798   0.09319   0.11014   0.11399   0.20467
     Eigenvalues ---    0.20555   0.26479   0.26848   0.28012   0.33471
     Eigenvalues ---    0.34133   0.34210   0.34244   0.34272   0.34296
     Eigenvalues ---    0.34325   0.34349   0.34364   0.34392   0.43909
     Eigenvalues --- 1000.000001000.000001000.000001000.000001000.00000
     Eigenvalues --- 1000.000001000.000001000.000001000.000001000.00000
     Eigenvalues --- 1000.000001000.000001000.000001000.000001000.00000
     Eigenvalues --- 1000.000001000.000001000.000001000.000001000.00000
     Eigenvalues --- 1000.000001000.000001000.000001000.000001000.00000
     Eigenvalues --- 1000.000001000.000001000.000001000.000001000.00000
     Eigenvalues --- 1000.000001000.000001000.000001000.000001000.00000
     Eigenvalues --- 1000.000001000.000001000.000001000.000001000.00000
     Eigenvalues --- 1000.000001000.000001000.000001000.000001000.00000
 RFO step:  Lambda=-4.86071448D-06 EMin= 5.64610331D-03
 Linear search not attempted -- first point.
 Iteration  1 RMS(Cart)=  0.00042243 RMS(Int)=  0.00000020
 Iteration  2 RMS(Cart)=  0.00000019 RMS(Int)=  0.00000007
 Iteration  1 RMS(Cart)=  0.00000000 RMS(Int)=  0.00000001
 Variable       Old X    -DE/DX   Delta X   Delta X   Delta X     New X
                                 (Linear)    (Quad)   (Total)
    R1        1.93264  -0.00028   0.00000  -0.00065  -0.00065   1.93199
    R2        2.77684   0.00007   0.00000   0.00025   0.00025   2.77709
    R3        2.77598   0.00035   0.00000   0.00102   0.00102   2.77700
    R4        2.06920  -0.00080   0.00000  -0.00234  -0.00234   2.06686
    R5        2.06977   0.00053   0.00000   0.00155   0.00155   2.07132
    R6        2.92032  -0.00004   0.00000  -0.00012  -0.00012   2.92020
    R7        2.06874  -0.00011   0.00000  -0.00034  -0.00034   2.06840
    R8        2.06673   0.00032   0.00000   0.00092   0.00092   2.06765
    R9        2.92414   0.00015   0.00000   0.00045   0.00045   2.92460
   R10        2.06784   0.00019   0.00000   0.00055   0.00055   2.06839
   R11        2.06833  -0.00024   0.00000  -0.00070  -0.00070   2.06763
   R12        2.92130  -0.00026   0.00000  -0.00098  -0.00098   2.92032
   R13        2.06721  -0.00011   0.00000  -0.00033  -0.00033   2.06688
   R14        2.07106   0.00009   0.00000   0.00026   0.00026   2.07132
    A1        1.88086   0.00002   0.00000   0.00006   0.00006   1.88092
    A2        1.88137  -0.00002   0.00000  -0.00028  -0.00028   1.88109
    A3        1.79287  -0.00003   0.00000   0.00006   0.00006   1.79293
    A4        1.93072   0.00001   0.00000   0.00035   0.00035   1.93107
    A5        1.87788   0.00001   0.00000  -0.00033  -0.00033   1.87755
    A6        1.86683  -0.00005   0.00000  -0.00012  -0.00012   1.86671
    A7        1.87807   0.00000   0.00000   0.00013   0.00013   1.87819
    A8        1.98333   0.00006   0.00000   0.00060   0.00060   1.98393
    A9        1.92473  -0.00005   0.00000  -0.00068  -0.00068   1.92405
   A10        1.92646  -0.00005   0.00000  -0.00034  -0.00034   1.92612
   A11        1.95561   0.00003   0.00000   0.00063   0.00063   1.95624
   A12        1.81501   0.00008   0.00000   0.00042   0.00042   1.81543
   A13        1.86977   0.00001   0.00000  -0.00019  -0.00019   1.86958
   A14        1.93270   0.00000   0.00000  -0.00004  -0.00004   1.93267
   A15        1.96534  -0.00007   0.00000  -0.00047  -0.00047   1.96488
   A16        1.93307  -0.00001   0.00000  -0.00017  -0.00017   1.93290
   A17        1.96494  -0.00000   0.00000  -0.00003  -0.00003   1.96491
   A18        1.81527  -0.00001   0.00000  -0.00010  -0.00010   1.81517
   A19        1.87003  -0.00003   0.00000  -0.00041  -0.00041   1.86962
   A20        1.92599   0.00001   0.00000   0.00018   0.00018   1.92617
   A21        1.95559   0.00004   0.00000   0.00055   0.00055   1.95613
   A22        1.86654   0.00003   0.00000   0.00026   0.00026   1.86680
   A23        1.93094   0.00001   0.00000   0.00030   0.00030   1.93124
   A24        1.87764   0.00001   0.00000   0.00011   0.00011   1.87775
   A25        1.98361  -0.00001   0.00000   0.00004   0.00004   1.98364
   A26        1.92455  -0.00006   0.00000  -0.00070  -0.00070   1.92385
   A27        1.87824   0.00001   0.00000  -0.00000  -0.00000   1.87824
    D1       -0.85065  -0.00002   0.00000  -0.00020  -0.00020  -0.85085
    D2       -2.89759  -0.00004   0.00000  -0.00036  -0.00036  -2.89795
    D3        1.31772   0.00004   0.00000   0.00068   0.00068   1.31840
    D4       -2.83442   0.00002   0.00000   0.00005   0.00005  -2.83436
    D5        1.40182  -0.00001   0.00000  -0.00010  -0.00010   1.40172
    D6       -0.66605   0.00007   0.00000   0.00094   0.00094  -0.66511
    D7       -1.31775  -0.00002   0.00000  -0.00037  -0.00037  -1.31812
    D8        0.85091  -0.00000   0.00000   0.00003   0.00003   0.85094
    D9        2.89805   0.00003   0.00000   0.00026   0.00026   2.89830
   D10        0.66565  -0.00001   0.00000  -0.00038  -0.00038   0.66526
   D11        2.83431   0.00000   0.00000   0.00002   0.00002   2.83433
   D12       -1.40174   0.00003   0.00000   0.00025   0.00025  -1.40149
   D13       -1.66449  -0.00003   0.00000  -0.00075  -0.00075  -1.66524
   D14        2.53645  -0.00002   0.00000  -0.00068  -0.00068   2.53576
   D15        0.40902  -0.00001   0.00000  -0.00073  -0.00073   0.40830
   D16        0.47131  -0.00000   0.00000  -0.00001  -0.00001   0.47130
   D17       -1.61094   0.00000   0.00000   0.00006   0.00006  -1.61088
   D18        2.54483   0.00002   0.00000   0.00002   0.00002   2.54484
   D19        2.58157   0.00001   0.00000   0.00007   0.00007   2.58165
   D20        0.49932   0.00001   0.00000   0.00014   0.00014   0.49946
   D21       -1.62810   0.00003   0.00000   0.00010   0.00010  -1.62800
   D22       -2.06931   0.00001   0.00000   0.00038   0.00038  -2.06893
   D23        2.12056   0.00005   0.00000   0.00105   0.00105   2.12161
   D24       -0.00031   0.00001   0.00000   0.00046   0.00046   0.00015
   D25       -0.00008  -0.00001   0.00000   0.00020   0.00020   0.00012
   D26       -2.09339   0.00003   0.00000   0.00086   0.00086  -2.09252
   D27        2.06893  -0.00000   0.00000   0.00028   0.00028   2.06921
   D28        2.09292  -0.00005   0.00000  -0.00039  -0.00039   2.09253
   D29       -0.00039  -0.00000   0.00000   0.00027   0.00027  -0.00012
   D30       -2.12126  -0.00004   0.00000  -0.00032  -0.00032  -2.12157
   D31       -0.40859   0.00002   0.00000   0.00000   0.00000  -0.40859
   D32       -2.54465  -0.00001   0.00000  -0.00059  -0.00059  -2.54523
   D33        1.62799   0.00002   0.00000  -0.00010  -0.00010   1.62790
   D34        1.66527   0.00001   0.00000  -0.00016  -0.00016   1.66510
   D35       -0.47079  -0.00002   0.00000  -0.00075  -0.00075  -0.47154
   D36       -2.58134   0.00001   0.00000  -0.00026  -0.00026  -2.58160
   D37       -2.53568   0.00001   0.00000  -0.00020  -0.00020  -2.53588
   D38        1.61145  -0.00002   0.00000  -0.00079  -0.00079   1.61066
   D39       -0.49910   0.00001   0.00000  -0.00030  -0.00030  -0.49939
         Item               Value     Threshold  Converged?
 Maximum Force            0.000803     0.000450     NO 
 RMS     Force            0.000138     0.000300     YES
 Maximum Displacement     0.001172     0.001800     YES
 RMS     Displacement     0.000422     0.001200     YES
 Predicted change in Energy=-2.430302D-06
 GradGradGradGradGradGradGradGradGradGradGradGradGradGradGradGradGradGrad

                          Input orientation:                          
 ---------------------------------------------------------------------
 Center     Atomic      Atomic             Coordinates (Angstroms)
 Number     Number       Type             X           Y           Z
 ---------------------------------------------------------------------
      1          7           0        0.844031    0.456396    0.923313
      2          1           0        1.371626    0.495092    1.798171
      3          6           0        1.643389    1.125620   -0.112454
      4          1           0        2.000011    2.096549    0.243035
      5          1           0        0.986914    1.307537   -0.971154
      6          6           0        2.778675    0.153116   -0.504014
      7          1           0        3.688752    0.383939    0.058589
      8          1           0        3.030792    0.221571   -1.566522
      9          6           0        2.230669   -1.240112   -0.111888
     10          1           0        2.866105   -1.707113    0.647169
     11          1           0        2.185145   -1.928034   -0.961498
     12          6           0        0.830234   -0.941098    0.469081
     13          1           0        0.542061   -1.609297    1.285625
     14          1           0        0.068595   -1.027167   -0.314453
 ---------------------------------------------------------------------
                    Distance matrix (angstroms):
                    1          2          3          4          5
     1  N    0.000000
     2  H    1.022365   0.000000
     3  C    1.469574   2.030248   0.000000
     4  H    2.118766   2.319047   1.093734   0.000000
     5  H    2.081794   2.911569   1.096093   1.767247   0.000000
     6  C    2.423240   2.719704   1.545302   2.222911   2.182044
     7  H    2.974128   2.899581   2.182397   2.412239   3.035347
     8  H    3.322100   3.761490   2.203748   2.802239   2.389817
     9  C    2.423334   2.719782   2.437537   3.363403   2.962395
    10  H    2.974190   2.899651   3.177489   3.921898   3.903645
    11  H    3.322139   3.761532   3.215459   4.205049   3.450330
    12  C    1.469526   2.030327   2.295806   3.262939   2.674918
    13  H    2.118854   2.319339   3.263023   4.116541   3.714683
    14  H    2.081904   2.911759   2.674934   3.714668   2.593340
                    6          7          8          9         10
     6  C    0.000000
     7  H    1.094551   0.000000
     8  H    1.094153   1.760755   0.000000
     9  C    1.547629   2.189202   2.211939   0.000000
    10  H    2.189364   2.322858   2.940641   1.094547   0.000000
    11  H    2.211957   2.940515   2.387881   1.094142   1.760772
    12  C    2.437343   3.177318   3.215266   1.545365   2.182490
    13  H    3.363235   3.921768   4.204830   2.222777   2.412130
    14  H    2.962015   3.903321   3.449874   2.181958   3.035309
                   11         12         13         14
    11  H    0.000000
    12  C    2.203720   0.000000
    13  H    2.801941   1.093745   0.000000
    14  H    2.389563   1.096096   1.767284   0.000000
 Stoichiometry    C4H9N
 Framework group  C1[X(C4H9N)]
 Deg. of freedom    36
 Full point group                 C1      NOp   1
 Largest Abelian subgroup         C1      NOp   1
 Largest concise Abelian subgroup C1      NOp   1
                         Standard orientation:                         
 ---------------------------------------------------------------------
 Center     Atomic      Atomic             Coordinates (Angstroms)
 Number     Number       Type             X           Y           Z
 ---------------------------------------------------------------------
      1          7           0        0.003006   -1.268169   -0.215870
      2          1           0        0.003166   -1.308398   -1.237443
      3          6           0        1.149016   -0.448013    0.200845
      4          1           0        2.060073   -0.769716   -0.311734
      5          1           0        1.298193   -0.609038    1.274734
      6          6           0        0.771348    1.025489   -0.071399
      7          1           0        1.158184    1.344197   -1.044448
      8          1           0        1.189831    1.702825    0.679108
      9          6           0       -0.776277    1.021902   -0.071518
     10          1           0       -1.164667    1.338666   -1.044579
     11          1           0       -1.198043    1.697185    0.678984
     12          6           0       -1.146784   -0.453446    0.200924
     13          1           0       -2.056457   -0.779284   -0.311523
     14          1           0       -1.295141   -0.614849    1.274873
 ---------------------------------------------------------------------
 Rotational constants (GHZ):           6.8850347           6.6919823           3.9131422
 Standard basis: 6-31G(d) (6D, 7F)
 There are    93 symmetry adapted cartesian basis functions of A   symmetry.
 There are    93 symmetry adapted basis functions of A   symmetry.
    93 basis functions,   176 primitive gaussians,    93 cartesian basis functions
    20 alpha electrons       20 beta electrons
       nuclear repulsion energy       190.0070567425 Hartrees.
 NAtoms=   14 NActive=   14 NUniq=   14 SFac= 1.00D+00 NAtFMM=   60 NAOKFM=F Big=F
 Integral buffers will be    131072 words long.
 Raffenetti 1 integral format.
 Two-electron integral symmetry is turned on.
 One-electron integrals computed using PRISM.
 NBasis=    93 RedAO= T EigKep=  3.15D-03  NBF=    93
 NBsUse=    93 1.00D-06 EigRej= -1.00D+00 NBFU=    93
 Initial guess from the checkpoint file:  "PRLD.scan1.pos.chk"
 B after Tr=    -0.000000    0.000000   -0.000000
         Rot=    0.999988    0.000085   -0.000027   -0.004962 Ang=   0.57 deg.
 Keep R1 ints in memory in canonical form, NReq=10436318.
 Requested convergence on RMS density matrix=1.00D-08 within 128 cycles.
 Requested convergence on MAX density matrix=1.00D-06.
 Requested convergence on             energy=1.00D-06.
 No special actions if energy rises.
 SCF Done:  E(RHF) =  -211.143210229     A.U. after    7 cycles
            NFock=  7  Conv=0.88D-08     -V/T= 2.0015
 ExpMin= 1.61D-01 ExpMax= 4.17D+03 ExpMxC= 6.27D+02 IAcc=3 IRadAn=         5 AccDes= 0.00D+00
 HarFok:  IExCor=  205 AccDes= 0.00D+00 IRadAn=         5 IDoV=-2 UseB2=F ITyADJ=14
 ICtDFT= 12500011 ScaDFX=  1.000000  1.000000  1.000000  1.000000
 Range of M.O.s used for correlation:     6    93
 NBasis=    93 NAE=    20 NBE=    20 NFC=     5 NFV=     0
 NROrb=     88 NOA=    15 NOB=    15 NVA=    73 NVB=    73
 Fully direct method using O(ONN) memory.
 JobTyp=1 Pass  1:  I=   6 to  20 NPSUse=  1 ParTrn=F ParDer=F DoDerP=T.
 Spin components of T(2) and E(2):
     alpha-alpha T2 =       0.2790767606D-01 E2=     -0.8404936022D-01
     alpha-beta  T2 =       0.1679156702D+00 E2=     -0.5160424718D+00
     beta-beta   T2 =       0.2790767606D-01 E2=     -0.8404936022D-01
 ANorm=    0.1106223767D+01
 E2 =    -0.6841411923D+00 EUMP2 =    -0.21182735142158D+03
          IDoAtm=11111111111111
          Differentiating once with respect to electric field.
                with respect to dipole field.
          Differentiating once with respect to nuclear coordinates.
 Keep R1 ints in memory in canonical form, NReq=10438744.
          There are     1 degrees of freedom in the 1st order CPHF.  IDoFFX=0 NUNeed=     1.
 LinEq1:  Iter=  0 NonCon=     1 RMS=4.26D-03 Max=4.53D-02 NDo=     1
 AX will form     1 AO Fock derivatives at one time.
 LinEq1:  Iter=  1 NonCon=     1 RMS=1.43D-03 Max=1.40D-02 NDo=     1
 LinEq1:  Iter=  2 NonCon=     1 RMS=2.90D-04 Max=3.42D-03 NDo=     1
 LinEq1:  Iter=  3 NonCon=     1 RMS=5.59D-05 Max=4.10D-04 NDo=     1
 LinEq1:  Iter=  4 NonCon=     1 RMS=1.19D-05 Max=1.55D-04 NDo=     1
 LinEq1:  Iter=  5 NonCon=     1 RMS=4.50D-06 Max=4.00D-05 NDo=     1
 LinEq1:  Iter=  6 NonCon=     1 RMS=1.05D-06 Max=1.55D-05 NDo=     1
 LinEq1:  Iter=  7 NonCon=     1 RMS=1.92D-07 Max=1.83D-06 NDo=     1
 LinEq1:  Iter=  8 NonCon=     1 RMS=6.32D-08 Max=5.78D-07 NDo=     1
 LinEq1:  Iter=  9 NonCon=     1 RMS=1.37D-08 Max=1.25D-07 NDo=     1
 LinEq1:  Iter= 10 NonCon=     1 RMS=3.65D-09 Max=2.96D-08 NDo=     1
 LinEq1:  Iter= 11 NonCon=     1 RMS=6.11D-10 Max=7.96D-09 NDo=     1
 LinEq1:  Iter= 12 NonCon=     1 RMS=1.20D-10 Max=1.50D-09 NDo=     1
 LinEq1:  Iter= 13 NonCon=     0 RMS=1.90D-11 Max=1.76D-10 NDo=     1
 Linear equations converged to 1.000D-10 1.000D-09 after    13 iterations.
 End of Minotr F.D. properties file   721 does not exist.
 End of Minotr F.D. properties file   722 does not exist.
 End of Minotr F.D. properties file   788 does not exist.
 Calling FoFJK, ICntrl=  10002127 FMM=F ISym2X=0 I1Cent= 0 IOpClX= 0 NMat=1 NMatS=1 NMatT=0.
 ***** Axes restored to original set *****
 -------------------------------------------------------------------
 Center     Atomic                   Forces (Hartrees/Bohr)
 Number     Number              X              Y              Z
 -------------------------------------------------------------------
      1        7          -0.000045197    0.000037488    0.000027708
      2        1           0.000006483   -0.000017157    0.000010603
      3        6           0.000025787   -0.000045840   -0.000055052
      4        1           0.000001744   -0.000006474    0.000013537
      5        1          -0.000012449   -0.000006398   -0.000000913
      6        6           0.000009365    0.000060567    0.000006904
      7        1           0.000022052   -0.000011060   -0.000002248
      8        1           0.000002268   -0.000007647    0.000006514
      9        6          -0.000110487    0.000017130    0.000029877
     10        1           0.000030352    0.000007848   -0.000003392
     11        1           0.000015495    0.000002530   -0.000003804
     12        6           0.000085438   -0.000095582   -0.000051178
     13        1          -0.000013281    0.000030785    0.000013323
     14        1          -0.000017569    0.000033810    0.000008122
 -------------------------------------------------------------------
 Cartesian Forces:  Max     0.000110487 RMS     0.000035164

 GradGradGradGradGradGradGradGradGradGradGradGradGradGradGradGradGradGrad
 Berny optimization.
 Using GEDIIS/GDIIS optimizer.
 FormGI is forming the generalized inverse of G from B-inverse, IUseBI=4.
 Internal  Forces:  Max     0.000042706 RMS     0.000013073
 Search for a local minimum.
 Step number   2 out of a maximum of   90 on scan point     1 out of     7
 All quantities printed in internal units (Hartrees-Bohrs-Radians)
 Mixed Optimization -- En-DIIS/RFO-DIIS
 Swapping is turned off.
 Update second derivatives using D2CorX and points    1    2
 DE= -2.44D-06 DEPred=-2.43D-06 R= 1.00D+00
 TightC=F SS=  1.41D+00  RLast= 4.88D-03 DXNew= 5.0454D-01 1.4632D-02
 Trust test= 1.00D+00 RLast= 4.88D-03 DXMaxT set to 3.00D-01
 ITU=  1  0
     Eigenvalues ---    0.00565   0.01457   0.02311   0.02412   0.04342
     Eigenvalues ---    0.04620   0.04955   0.05364   0.05523   0.05750
     Eigenvalues ---    0.05905   0.06792   0.06895   0.08245   0.08781
     Eigenvalues ---    0.08923   0.09366   0.10996   0.11400   0.20466
     Eigenvalues ---    0.20681   0.26307   0.26850   0.27421   0.33425
     Eigenvalues ---    0.33856   0.34138   0.34225   0.34291   0.34297
     Eigenvalues ---    0.34335   0.34362   0.34365   0.34967   0.44081
     Eigenvalues --- 1000.000001000.000001000.000001000.000001000.00000
     Eigenvalues --- 1000.000001000.000001000.000001000.000001000.00000
     Eigenvalues --- 1000.000001000.000001000.000001000.000001000.00000
     Eigenvalues --- 1000.000001000.000001000.000001000.000001000.00000
     Eigenvalues --- 1000.000001000.000001000.000001000.000001000.00000
     Eigenvalues --- 1000.000001000.000001000.000001000.000001000.00000
     Eigenvalues --- 1000.000001000.000001000.000001000.000001000.00000
     Eigenvalues --- 1000.000001000.000001000.000001000.000001000.00000
     Eigenvalues --- 1000.000001000.000001000.000001000.000001000.00000
 En-DIIS/RFO-DIIS/Sim-DIIS IScMMF=       -3 using points:     2    1
 RFO step:  Lambda=-1.26524786D-07.
 DidBck=F Rises=F RFO-DIIS coefs:    0.99222    0.00778
 Iteration  1 RMS(Cart)=  0.00016169 RMS(Int)=  0.00000003
 Iteration  2 RMS(Cart)=  0.00000002 RMS(Int)=  0.00000002
 Iteration  1 RMS(Cart)=  0.00000000 RMS(Int)=  0.00000001
 Variable       Old X    -DE/DX   Delta X   Delta X   Delta X     New X
                                 (Linear)    (Quad)   (Total)
    R1        1.93199   0.00001   0.00001   0.00000   0.00001   1.93200
    R2        2.77709   0.00002  -0.00000   0.00007   0.00007   2.77716
    R3        2.77700   0.00001  -0.00001   0.00006   0.00005   2.77705
    R4        2.06686  -0.00000   0.00002  -0.00008  -0.00006   2.06679
    R5        2.07132   0.00001  -0.00001   0.00007   0.00006   2.07138
    R6        2.92020  -0.00003   0.00000  -0.00012  -0.00012   2.92008
    R7        2.06840   0.00001   0.00000   0.00003   0.00003   2.06844
    R8        2.06765  -0.00001  -0.00001   0.00001   0.00001   2.06766
    R9        2.92460   0.00001  -0.00000   0.00005   0.00005   2.92464
   R10        2.06839   0.00001  -0.00000   0.00005   0.00005   2.06844
   R11        2.06763   0.00000   0.00001  -0.00002  -0.00002   2.06761
   R12        2.92032  -0.00004   0.00001  -0.00018  -0.00017   2.92015
   R13        2.06688  -0.00001   0.00000  -0.00003  -0.00002   2.06685
   R14        2.07132   0.00000  -0.00000   0.00002   0.00002   2.07134
    A1        1.88092   0.00001  -0.00000   0.00008   0.00008   1.88100
    A2        1.88109  -0.00000   0.00000  -0.00014  -0.00014   1.88096
    A3        1.79293  -0.00002  -0.00000  -0.00014  -0.00014   1.79279
    A4        1.93107  -0.00001  -0.00000  -0.00013  -0.00013   1.93094
    A5        1.87755  -0.00001   0.00000  -0.00007  -0.00006   1.87748
    A6        1.86671   0.00002   0.00000   0.00006   0.00006   1.86678
    A7        1.87819   0.00001  -0.00000   0.00011   0.00010   1.87830
    A8        1.98393  -0.00001  -0.00000  -0.00004  -0.00005   1.98388
    A9        1.92405   0.00000   0.00001   0.00007   0.00007   1.92412
   A10        1.92612   0.00002   0.00000   0.00022   0.00023   1.92634
   A11        1.95624   0.00001  -0.00000   0.00007   0.00006   1.95630
   A12        1.81543  -0.00003  -0.00000  -0.00015  -0.00015   1.81528
   A13        1.86958  -0.00001   0.00000  -0.00004  -0.00004   1.86954
   A14        1.93267   0.00000   0.00000  -0.00001  -0.00001   1.93266
   A15        1.96488   0.00000   0.00000  -0.00009  -0.00008   1.96479
   A16        1.93290  -0.00002   0.00000  -0.00027  -0.00027   1.93263
   A17        1.96491  -0.00001   0.00000  -0.00010  -0.00010   1.96482
   A18        1.81517   0.00002   0.00000   0.00011   0.00011   1.81528
   A19        1.86962   0.00000   0.00000  -0.00006  -0.00006   1.86956
   A20        1.92617   0.00001  -0.00000   0.00018   0.00018   1.92635
   A21        1.95613   0.00000  -0.00000   0.00015   0.00015   1.95628
   A22        1.86680   0.00000  -0.00000  -0.00003  -0.00003   1.86677
   A23        1.93124  -0.00003  -0.00000  -0.00025  -0.00025   1.93099
   A24        1.87775  -0.00002  -0.00000  -0.00031  -0.00031   1.87743
   A25        1.98364   0.00002  -0.00000   0.00025   0.00025   1.98389
   A26        1.92385   0.00002   0.00001   0.00022   0.00023   1.92408
   A27        1.87824   0.00000   0.00000   0.00009   0.00009   1.87833
    D1       -0.85085  -0.00001   0.00000  -0.00033  -0.00033  -0.85118
    D2       -2.89795  -0.00000   0.00000  -0.00035  -0.00035  -2.89830
    D3        1.31840  -0.00002  -0.00001  -0.00042  -0.00043   1.31797
    D4       -2.83436   0.00000  -0.00000  -0.00015  -0.00015  -2.83451
    D5        1.40172   0.00001   0.00000  -0.00016  -0.00016   1.40156
    D6       -0.66511  -0.00000  -0.00001  -0.00024  -0.00024  -0.66536
    D7       -1.31812  -0.00000   0.00000   0.00012   0.00012  -1.31800
    D8        0.85094   0.00001  -0.00000   0.00025   0.00025   0.85119
    D9        2.89830  -0.00001  -0.00000   0.00004   0.00003   2.89834
   D10        0.66526  -0.00001   0.00000   0.00009   0.00009   0.66536
   D11        2.83433   0.00001  -0.00000   0.00022   0.00022   2.83455
   D12       -1.40149  -0.00002  -0.00000   0.00001   0.00001  -1.40149
   D13       -1.66524   0.00001   0.00001   0.00024   0.00024  -1.66500
   D14        2.53576  -0.00000   0.00001   0.00009   0.00009   2.53586
   D15        0.40830   0.00001   0.00001   0.00025   0.00026   0.40855
   D16        0.47130  -0.00000   0.00000   0.00009   0.00009   0.47139
   D17       -1.61088  -0.00001  -0.00000  -0.00006  -0.00006  -1.61094
   D18        2.54484  -0.00000  -0.00000   0.00010   0.00010   2.54495
   D19        2.58165   0.00001  -0.00000   0.00024   0.00024   2.58189
   D20        0.49946  -0.00000  -0.00000   0.00010   0.00010   0.49956
   D21       -1.62800   0.00001  -0.00000   0.00026   0.00026  -1.62774
   D22       -2.06893  -0.00002  -0.00000  -0.00028  -0.00028  -2.06921
   D23        2.12161   0.00000  -0.00001   0.00006   0.00005   2.12166
   D24        0.00015  -0.00000  -0.00000  -0.00014  -0.00014   0.00001
   D25        0.00012  -0.00001  -0.00000  -0.00010  -0.00011   0.00002
   D26       -2.09252   0.00002  -0.00001   0.00023   0.00022  -2.09230
   D27        2.06921   0.00001  -0.00000   0.00003   0.00003   2.06924
   D28        2.09253  -0.00001   0.00000  -0.00022  -0.00022   2.09231
   D29       -0.00012   0.00001  -0.00000   0.00012   0.00011  -0.00000
   D30       -2.12157   0.00000   0.00000  -0.00008  -0.00008  -2.12165
   D31       -0.40859  -0.00000  -0.00000   0.00000  -0.00000  -0.40859
   D32       -2.54523   0.00001   0.00000   0.00018   0.00018  -2.54505
   D33        1.62790  -0.00002   0.00000  -0.00027  -0.00027   1.62762
   D34        1.66510  -0.00001   0.00000  -0.00017  -0.00017   1.66493
   D35       -0.47154   0.00001   0.00001   0.00001   0.00001  -0.47153
   D36       -2.58160  -0.00002   0.00000  -0.00044  -0.00044  -2.58204
   D37       -2.53588   0.00000   0.00000  -0.00003  -0.00003  -2.53591
   D38        1.61066   0.00002   0.00001   0.00015   0.00015   1.61081
   D39       -0.49939  -0.00001   0.00000  -0.00031  -0.00030  -0.49970
         Item               Value     Threshold  Converged?
 Maximum Force            0.000043     0.000450     YES
 RMS     Force            0.000013     0.000300     YES
 Maximum Displacement     0.000674     0.001800     YES
 RMS     Displacement     0.000162     0.001200     YES
 Predicted change in Energy=-6.326539D-08
 Optimization completed.
    -- Stationary point found.
                           ----------------------------
                           !   Optimized Parameters   !
                           ! (Angstroms and Degrees)  !
 --------------------------                            --------------------------
 ! Name  Definition              Value          Derivative Info.                !
 --------------------------------------------------------------------------------
 ! R1    R(1,2)                  1.0224         -DE/DX =    0.0                 !
 ! R2    R(1,3)                  1.4696         -DE/DX =    0.0                 !
 ! R3    R(1,12)                 1.4695         -DE/DX =    0.0                 !
 ! R4    R(3,4)                  1.0937         -DE/DX =    0.0                 !
 ! R5    R(3,5)                  1.0961         -DE/DX =    0.0                 !
 ! R6    R(3,6)                  1.5453         -DE/DX =    0.0                 !
 ! R7    R(6,7)                  1.0946         -DE/DX =    0.0                 !
 ! R8    R(6,8)                  1.0942         -DE/DX =    0.0                 !
 ! R9    R(6,9)                  1.5476         -DE/DX =    0.0                 !
 ! R10   R(9,10)                 1.0945         -DE/DX =    0.0                 !
 ! R11   R(9,11)                 1.0941         -DE/DX =    0.0                 !
 ! R12   R(9,12)                 1.5454         -DE/DX =    0.0                 !
 ! R13   R(12,13)                1.0937         -DE/DX =    0.0                 !
 ! R14   R(12,14)                1.0961         -DE/DX =    0.0                 !
 ! A1    A(2,1,3)              107.769          -DE/DX =    0.0                 !
 ! A2    A(2,1,12)             107.7788         -DE/DX =    0.0                 !
 ! A3    A(3,1,12)             102.7275         -DE/DX =    0.0                 !
 ! A4    A(1,3,4)              110.6423         -DE/DX =    0.0                 !
 ! A5    A(1,3,5)              107.5755         -DE/DX =    0.0                 !
 ! A6    A(1,3,6)              106.9548         -DE/DX =    0.0                 !
 ! A7    A(4,3,5)              107.6126         -DE/DX =    0.0                 !
 ! A8    A(4,3,6)              113.6706         -DE/DX =    0.0                 !
 ! A9    A(5,3,6)              110.2398         -DE/DX =    0.0                 !
 ! A10   A(3,6,7)              110.3584         -DE/DX =    0.0                 !
 ! A11   A(3,6,8)              112.0842         -DE/DX =    0.0                 !
 ! A12   A(3,6,9)              104.0164         -DE/DX =    0.0                 !
 ! A13   A(7,6,8)              107.119          -DE/DX =    0.0                 !
 ! A14   A(7,6,9)              110.7337         -DE/DX =    0.0                 !
 ! A15   A(8,6,9)              112.5791         -DE/DX =    0.0                 !
 ! A16   A(6,9,10)             110.7467         -DE/DX =    0.0                 !
 ! A17   A(6,9,11)             112.5812         -DE/DX =    0.0                 !
 ! A18   A(6,9,12)             104.0018         -DE/DX =    0.0                 !
 ! A19   A(10,9,11)            107.1215         -DE/DX =    0.0                 !
 ! A20   A(10,9,12)            110.3616         -DE/DX =    0.0                 !
 ! A21   A(11,9,12)            112.0782         -DE/DX =    0.0                 !
 ! A22   A(1,12,9)             106.9599         -DE/DX =    0.0                 !
 ! A23   A(1,12,13)            110.6522         -DE/DX =    0.0                 !
 ! A24   A(1,12,14)            107.5871         -DE/DX =    0.0                 !
 ! A25   A(9,12,13)            113.6544         -DE/DX =    0.0                 !
 ! A26   A(9,12,14)            110.2285         -DE/DX =    0.0                 !
 ! A27   A(13,12,14)           107.615          -DE/DX =    0.0                 !
 ! D1    D(2,1,3,4)            -48.7502         -DE/DX =    0.0                 !
 ! D2    D(2,1,3,5)           -166.0403         -DE/DX =    0.0                 !
 ! D3    D(2,1,3,6)             75.5387         -DE/DX =    0.0                 !
 ! D4    D(12,1,3,4)          -162.397          -DE/DX =    0.0                 !
 ! D5    D(12,1,3,5)            80.3128         -DE/DX =    0.0                 !
 ! D6    D(12,1,3,6)           -38.1081         -DE/DX =    0.0                 !
 ! D7    D(2,1,12,9)           -75.5229         -DE/DX =    0.0                 !
 ! D8    D(2,1,12,13)           48.7554         -DE/DX =    0.0                 !
 ! D9    D(2,1,12,14)          166.0606         -DE/DX =    0.0                 !
 ! D10   D(3,1,12,9)            38.1168         -DE/DX =    0.0                 !
 ! D11   D(3,1,12,13)          162.3951         -DE/DX =    0.0                 !
 ! D12   D(3,1,12,14)          -80.2997         -DE/DX =    0.0                 !
 ! D13   D(1,3,6,7)            -95.4114         -DE/DX =    0.0                 !
 ! D14   D(1,3,6,8)            145.2884         -DE/DX =    0.0                 !
 ! D15   D(1,3,6,9)             23.3937         -DE/DX =    0.0                 !
 ! D16   D(4,3,6,7)             27.0036         -DE/DX =    0.0                 !
 ! D17   D(4,3,6,8)            -92.2965         -DE/DX =    0.0                 !
 ! D18   D(4,3,6,9)            145.8088         -DE/DX =    0.0                 !
 ! D19   D(5,3,6,7)            147.9174         -DE/DX =    0.0                 !
 ! D20   D(5,3,6,8)             28.6172         -DE/DX =    0.0                 !
 ! D21   D(5,3,6,9)            -93.2774         -DE/DX =    0.0                 !
 ! D22   D(3,6,9,10)          -118.541          -DE/DX =    0.0                 !
 ! D23   D(3,6,9,11)           121.5592         -DE/DX =    0.0                 !
 ! D24   D(3,6,9,12)             0.0088         -DE/DX =    0.0                 !
 ! D25   D(7,6,9,10)             0.007          -DE/DX =    0.0                 !
 ! D26   D(7,6,9,11)          -119.8928         -DE/DX =    0.0                 !
 ! D27   D(7,6,9,12)           118.5568         -DE/DX =    0.0                 !
 ! D28   D(8,6,9,10)           119.8931         -DE/DX =    0.0                 !
 ! D29   D(8,6,9,11)            -0.0068         -DE/DX =    0.0                 !
 ! D30   D(8,6,9,12)          -121.5571         -DE/DX =    0.0                 !
 ! D31   D(6,9,12,1)           -23.4104         -DE/DX =    0.0                 !
 ! D32   D(6,9,12,13)         -145.8312         -DE/DX =    0.0                 !
 ! D33   D(6,9,12,14)           93.2715         -DE/DX =    0.0                 !
 ! D34   D(10,9,12,1)           95.4033         -DE/DX =    0.0                 !
 ! D35   D(10,9,12,13)         -27.0174         -DE/DX =    0.0                 !
 ! D36   D(10,9,12,14)        -147.9147         -DE/DX =    0.0                 !
 ! D37   D(11,9,12,1)         -145.2951         -DE/DX =    0.0                 !
 ! D38   D(11,9,12,13)          92.2841         -DE/DX =    0.0                 !
 ! D39   D(11,9,12,14)         -28.6132         -DE/DX =    0.0                 !
 --------------------------------------------------------------------------------
 Iteration  1 RMS(Cart)=  0.01011397 RMS(Int)=  0.02649523
 Iteration  2 RMS(Cart)=  0.00183596 RMS(Int)=  0.02635241
 Iteration  3 RMS(Cart)=  0.00034293 RMS(Int)=  0.02633985
 Iteration  4 RMS(Cart)=  0.00006411 RMS(Int)=  0.02633799
 Iteration  5 RMS(Cart)=  0.00001199 RMS(Int)=  0.02633766
 Iteration  6 RMS(Cart)=  0.00000224 RMS(Int)=  0.02633760
 Iteration  7 RMS(Cart)=  0.00000042 RMS(Int)=  0.02633759
 Iteration  1 RMS(Cart)=  0.00995831 RMS(Int)=  0.02162918
 Iteration  2 RMS(Cart)=  0.00870171 RMS(Int)=  0.02302574
 Iteration  3 RMS(Cart)=  0.00699863 RMS(Int)=  0.02624408
 Iteration  4 RMS(Cart)=  0.00565109 RMS(Int)=  0.02980428
 Iteration  5 RMS(Cart)=  0.00457646 RMS(Int)=  0.03312341
 Iteration  6 RMS(Cart)=  0.00371438 RMS(Int)=  0.03602754
 Iteration  7 RMS(Cart)=  0.00301972 RMS(Int)=  0.03849692
 Iteration  8 RMS(Cart)=  0.00245809 RMS(Int)=  0.04056605
 Iteration  9 RMS(Cart)=  0.00200286 RMS(Int)=  0.04228558
 Iteration 10 RMS(Cart)=  0.00163316 RMS(Int)=  0.04370746
 Iteration 11 RMS(Cart)=  0.00133247 RMS(Int)=  0.04487948
 Iteration 12 RMS(Cart)=  0.00108764 RMS(Int)=  0.04584350
 Iteration 13 RMS(Cart)=  0.00088812 RMS(Int)=  0.04663527
 Iteration 14 RMS(Cart)=  0.00072540 RMS(Int)=  0.04728489
 Iteration 15 RMS(Cart)=  0.00059263 RMS(Int)=  0.04781748
 Iteration 16 RMS(Cart)=  0.00048425 RMS(Int)=  0.04825387
 Iteration 17 RMS(Cart)=  0.00039574 RMS(Int)=  0.04861129
 Iteration 18 RMS(Cart)=  0.00032345 RMS(Int)=  0.04890393
 Iteration 19 RMS(Cart)=  0.00026439 RMS(Int)=  0.04914347
 Iteration 20 RMS(Cart)=  0.00021613 RMS(Int)=  0.04933951
 Iteration 21 RMS(Cart)=  0.00017669 RMS(Int)=  0.04949993
 Iteration 22 RMS(Cart)=  0.00014446 RMS(Int)=  0.04963117
 Iteration 23 RMS(Cart)=  0.00011811 RMS(Int)=  0.04973854
 Iteration 24 RMS(Cart)=  0.00009657 RMS(Int)=  0.04982636
 Iteration 25 RMS(Cart)=  0.00007896 RMS(Int)=  0.04989820
 Iteration 26 RMS(Cart)=  0.00006456 RMS(Int)=  0.04995696
 Iteration 27 RMS(Cart)=  0.00005279 RMS(Int)=  0.05000502
 Iteration 28 RMS(Cart)=  0.00004316 RMS(Int)=  0.05004433
 Iteration 29 RMS(Cart)=  0.00003530 RMS(Int)=  0.05007647
 Iteration 30 RMS(Cart)=  0.00002886 RMS(Int)=  0.05010276
 Iteration 31 RMS(Cart)=  0.00002360 RMS(Int)=  0.05012426
 Iteration 32 RMS(Cart)=  0.00001930 RMS(Int)=  0.05014184
 Iteration 33 RMS(Cart)=  0.00001578 RMS(Int)=  0.05015622
 Iteration 34 RMS(Cart)=  0.00001290 RMS(Int)=  0.05016798
 Iteration 35 RMS(Cart)=  0.00001055 RMS(Int)=  0.05017759
 Iteration 36 RMS(Cart)=  0.00000863 RMS(Int)=  0.05018546
 Iteration 37 RMS(Cart)=  0.00000706 RMS(Int)=  0.05019189
 Iteration 38 RMS(Cart)=  0.00000577 RMS(Int)=  0.05019715
 Iteration 39 RMS(Cart)=  0.00000472 RMS(Int)=  0.05020145
 Iteration 40 RMS(Cart)=  0.00000386 RMS(Int)=  0.05020496
 Iteration 41 RMS(Cart)=  0.00000315 RMS(Int)=  0.05020784
 Iteration 42 RMS(Cart)=  0.00000258 RMS(Int)=  0.05021019
 Iteration 43 RMS(Cart)=  0.00000211 RMS(Int)=  0.05021211
 Iteration 44 RMS(Cart)=  0.00000173 RMS(Int)=  0.05021368
 Iteration 45 RMS(Cart)=  0.00000141 RMS(Int)=  0.05021497
 Iteration 46 RMS(Cart)=  0.00000115 RMS(Int)=  0.05021602
 Iteration 47 RMS(Cart)=  0.00000094 RMS(Int)=  0.05021688
 GradGradGradGradGradGradGradGradGradGradGradGradGradGradGradGradGradGrad

                          Input orientation:                          
 ---------------------------------------------------------------------
 Center     Atomic      Atomic             Coordinates (Angstroms)
 Number     Number       Type             X           Y           Z
 ---------------------------------------------------------------------
      1          7           0        0.828457    0.464232    0.844846
      2          1           0        1.374628    0.564545    1.703435
      3          6           0        1.637650    1.139762   -0.121548
      4          1           0        1.936197    2.116948    0.268924
      5          1           0        1.051357    1.313934   -1.031455
      6          6           0        2.801811    0.161110   -0.450842
      7          1           0        3.711805    0.334508    0.132405
      8          1           0        3.066702    0.283382   -1.505486
      9          6           0        2.190317   -1.253955   -0.181258
     10          1           0        2.850083   -1.712046    0.562392
     11          1           0        2.125779   -1.939005   -1.031959
     12          6           0        0.847683   -0.980174    0.543165
     13          1           0        0.574908   -1.636964    1.374135
     14          1           0        0.069622   -1.069276   -0.223755
 ---------------------------------------------------------------------
                    Distance matrix (angstroms):
                    1          2          3          4          5
     1  N    0.000000
     2  H    1.022517   0.000000
     3  C    1.430052   1.931480   0.000000
     4  H    2.071290   2.187038   1.093842   0.000000
     5  H    2.071758   2.854069   1.096361   1.766001   0.000000
     6  C    2.380087   2.615438   1.556105   2.256690   2.174902
     7  H    2.972894   2.825499   2.239430   2.519626   3.064609
     8  H    3.250616   3.638590   2.165839   2.790794   2.312651
     9  C    2.420686   2.743056   2.457414   3.410311   2.934981
    10  H    2.983779   2.943095   3.173417   3.947468   3.864235
    11  H    3.313758   3.783433   3.247448   4.263682   3.425783
    12  C    1.475700   2.002512   2.357969   3.294273   2.789954
    13  H    2.181619   2.365298   3.328166   4.143242   3.836882
    14  H    2.017272   2.843673   2.710905   3.725434   2.701087
                    6          7          8          9         10
     6  C    0.000000
     7  H    1.094684   0.000000
     8  H    1.094254   1.761096   0.000000
     9  C    1.564931   2.221829   2.210211   0.000000
    10  H    2.130185   2.261822   2.881801   1.094602   0.000000
    11  H    2.281491   3.006674   2.459383   1.094144   1.765810
    12  C    2.471679   3.178098   3.273773   1.549971   2.132043
    13  H    3.394511   3.907521   4.264854   2.274970   2.416812
    14  H    3.005042   3.919562   3.529165   2.129146   2.960092
                   11         12         13         14
    11  H    0.000000
    12  C    2.243636   0.000000
    13  H    2.878492   1.093750   0.000000
    14  H    2.374322   1.096123   1.769417   0.000000
 Stoichiometry    C4H9N
 Framework group  C1[X(C4H9N)]
 Deg. of freedom    36
 Full point group                 C1      NOp   1
 Largest Abelian subgroup         C1      NOp   1
 Largest concise Abelian subgroup C1      NOp   1
                         Standard orientation:                         
 ---------------------------------------------------------------------
 Center     Atomic      Atomic             Coordinates (Angstroms)
 Number     Number       Type             X           Y           Z
 ---------------------------------------------------------------------
      1          7           0        0.176790   -1.232972   -0.161468
      2          1           0        0.252667   -1.258006   -1.180858
      3          6           0        1.209473   -0.314816    0.206776
      4          1           0        2.139095   -0.585094   -0.302385
      5          1           0        1.392675   -0.384361    1.285482
      6          6           0        0.648644    1.099501   -0.119783
      7          1           0        0.940491    1.481397   -1.103305
      8          1           0        1.032068    1.802682    0.625813
      9          6           0       -0.901486    0.927589    0.008874
     10          1           0       -1.303038    1.230813   -0.963219
     11          1           0       -1.406807    1.523109    0.775137
     12          6           0       -1.128996   -0.602138    0.111774
     13          1           0       -1.978465   -1.027634   -0.430117
     14          1           0       -1.272026   -0.812920    1.177888
 ---------------------------------------------------------------------
 Rotational constants (GHZ):           6.8545263           6.7175174           3.8654835
 Standard basis: 6-31G(d) (6D, 7F)
 There are    93 symmetry adapted cartesian basis functions of A   symmetry.
 There are    93 symmetry adapted basis functions of A   symmetry.
    93 basis functions,   176 primitive gaussians,    93 cartesian basis functions
    20 alpha electrons       20 beta electrons
       nuclear repulsion energy       189.9180525081 Hartrees.
 NAtoms=   14 NActive=   14 NUniq=   14 SFac= 1.00D+00 NAtFMM=   60 NAOKFM=F Big=F
 Integral buffers will be    131072 words long.
 Raffenetti 1 integral format.
 Two-electron integral symmetry is turned on.
 One-electron integrals computed using PRISM.
 NBasis=    93 RedAO= T EigKep=  3.28D-03  NBF=    93
 NBsUse=    93 1.00D-06 EigRej= -1.00D+00 NBFU=    93
 Initial guess from the checkpoint file:  "PRLD.scan1.pos.chk"
 B after Tr=     0.000000   -0.000000    0.000000
         Rot=    0.998164   -0.002686    0.002697   -0.060444 Ang=  -6.94 deg.
 Keep R1 ints in memory in canonical form, NReq=10436256.
 Requested convergence on RMS density matrix=1.00D-08 within 128 cycles.
 Requested convergence on MAX density matrix=1.00D-06.
 Requested convergence on             energy=1.00D-06.
 No special actions if energy rises.
 SCF Done:  E(RHF) =  -211.131978337     A.U. after   11 cycles
            NFock= 11  Conv=0.69D-08     -V/T= 2.0013
 ExpMin= 1.61D-01 ExpMax= 4.17D+03 ExpMxC= 6.27D+02 IAcc=3 IRadAn=         5 AccDes= 0.00D+00
 HarFok:  IExCor=  205 AccDes= 0.00D+00 IRadAn=         5 IDoV=-2 UseB2=F ITyADJ=14
 ICtDFT= 12500011 ScaDFX=  1.000000  1.000000  1.000000  1.000000
 Range of M.O.s used for correlation:     6    93
 NBasis=    93 NAE=    20 NBE=    20 NFC=     5 NFV=     0
 NROrb=     88 NOA=    15 NOB=    15 NVA=    73 NVB=    73
 Fully direct method using O(ONN) memory.
 JobTyp=1 Pass  1:  I=   6 to  20 NPSUse=  1 ParTrn=F ParDer=F DoDerP=T.
 Spin components of T(2) and E(2):
     alpha-alpha T2 =       0.2792253653D-01 E2=     -0.8409875897D-01
     alpha-beta  T2 =       0.1681765777D+00 E2=     -0.5163371236D+00
     beta-beta   T2 =       0.2792253653D-01 E2=     -0.8409875897D-01
 ANorm=    0.1106355120D+01
 E2 =    -0.6845346415D+00 EUMP2 =    -0.21181651297898D+03
          IDoAtm=11111111111111
          Differentiating once with respect to electric field.
                with respect to dipole field.
          Differentiating once with respect to nuclear coordinates.
 Keep R1 ints in memory in canonical form, NReq=10438739.
          There are     1 degrees of freedom in the 1st order CPHF.  IDoFFX=0 NUNeed=     1.
 LinEq1:  Iter=  0 NonCon=     1 RMS=4.26D-03 Max=4.26D-02 NDo=     1
 AX will form     1 AO Fock derivatives at one time.
 LinEq1:  Iter=  1 NonCon=     1 RMS=1.41D-03 Max=1.16D-02 NDo=     1
 LinEq1:  Iter=  2 NonCon=     1 RMS=2.92D-04 Max=3.51D-03 NDo=     1
 LinEq1:  Iter=  3 NonCon=     1 RMS=5.61D-05 Max=4.33D-04 NDo=     1
 LinEq1:  Iter=  4 NonCon=     1 RMS=1.14D-05 Max=1.20D-04 NDo=     1
 LinEq1:  Iter=  5 NonCon=     1 RMS=3.44D-06 Max=3.87D-05 NDo=     1
 LinEq1:  Iter=  6 NonCon=     1 RMS=8.42D-07 Max=1.19D-05 NDo=     1
 LinEq1:  Iter=  7 NonCon=     1 RMS=1.48D-07 Max=1.38D-06 NDo=     1
 LinEq1:  Iter=  8 NonCon=     1 RMS=5.80D-08 Max=4.58D-07 NDo=     1
 LinEq1:  Iter=  9 NonCon=     1 RMS=1.45D-08 Max=1.34D-07 NDo=     1
 LinEq1:  Iter= 10 NonCon=     1 RMS=3.82D-09 Max=2.71D-08 NDo=     1
 LinEq1:  Iter= 11 NonCon=     1 RMS=6.60D-10 Max=7.95D-09 NDo=     1
 LinEq1:  Iter= 12 NonCon=     1 RMS=1.31D-10 Max=1.48D-09 NDo=     1
 LinEq1:  Iter= 13 NonCon=     0 RMS=3.42D-11 Max=3.11D-10 NDo=     1
 Linear equations converged to 1.000D-10 1.000D-09 after    13 iterations.
 End of Minotr F.D. properties file   721 does not exist.
 End of Minotr F.D. properties file   722 does not exist.
 End of Minotr F.D. properties file   788 does not exist.
 Calling FoFJK, ICntrl=  10002127 FMM=F ISym2X=0 I1Cent= 0 IOpClX= 0 NMat=1 NMatS=1 NMatT=0.
 ***** Axes restored to original set *****
 -------------------------------------------------------------------
 Center     Atomic                   Forces (Hartrees/Bohr)
 Number     Number              X              Y              Z
 -------------------------------------------------------------------
      1        7          -0.007157021   -0.008022871    0.046226132
      2        1          -0.006505579    0.000942870    0.007067218
      3        6           0.012810745   -0.007153184   -0.018987876
      4        1           0.002534278   -0.000903066   -0.001139519
      5        1          -0.000395156    0.000132510   -0.000757689
      6        6          -0.011441479   -0.001125024   -0.020656636
      7        1          -0.003764157    0.000561177    0.003014928
      8        1           0.004817064   -0.001621827   -0.000364477
      9        6           0.018825739    0.004924106    0.030479689
     10        1           0.002787214   -0.007791929   -0.003944609
     11        1          -0.001762731    0.005859618   -0.001513556
     12        6          -0.010905338    0.016626598   -0.044568227
     13        1           0.005297246    0.005989494    0.002579171
     14        1          -0.005140824   -0.008418473    0.002565452
 -------------------------------------------------------------------
 Cartesian Forces:  Max     0.046226132 RMS     0.013386851

 GradGradGradGradGradGradGradGradGradGradGradGradGradGradGradGradGradGrad
 Berny optimization.
 FormGI is forming the generalized inverse of G from B-inverse, IUseBI=4.
 Internal  Forces:  Max     0.026890386 RMS     0.005987454
 Search for a local minimum.
 Step number   1 out of a maximum of   90 on scan point     2 out of     7
 All quantities printed in internal units (Hartrees-Bohrs-Radians)
 Mixed Optimization -- RFO/linear search
 Second derivative matrix not updated -- first step.
 ITU=  0
     Eigenvalues ---    0.00561   0.01386   0.02266   0.02329   0.04067
     Eigenvalues ---    0.04438   0.05158   0.05393   0.05594   0.05878
     Eigenvalues ---    0.06003   0.06851   0.07035   0.08620   0.08628
     Eigenvalues ---    0.08897   0.09578   0.11052   0.11686   0.20916
     Eigenvalues ---    0.21324   0.26476   0.26921   0.27319   0.33594
     Eigenvalues ---    0.34087   0.34144   0.34228   0.34292   0.34306
     Eigenvalues ---    0.34360   0.34364   0.34518   0.35007   0.44081
     Eigenvalues --- 1000.000001000.000001000.000001000.000001000.00000
     Eigenvalues --- 1000.000001000.000001000.000001000.000001000.00000
     Eigenvalues --- 1000.000001000.000001000.000001000.000001000.00000
     Eigenvalues --- 1000.000001000.000001000.000001000.000001000.00000
     Eigenvalues --- 1000.000001000.000001000.000001000.000001000.00000
     Eigenvalues --- 1000.000001000.000001000.000001000.000001000.00000
     Eigenvalues --- 1000.000001000.000001000.000001000.000001000.00000
     Eigenvalues --- 1000.000001000.000001000.000001000.000001000.00000
     Eigenvalues --- 1000.000001000.000001000.000001000.000001000.00000
 RFO step:  Lambda=-1.31854639D-02 EMin= 5.60784475D-03
 Linear search not attempted -- first point.
 Iteration  1 RMS(Cart)=  0.05262834 RMS(Int)=  0.00183078
 Iteration  2 RMS(Cart)=  0.00174465 RMS(Int)=  0.00075649
[...]
           A26        110.22855 110.12968 110.47616 111.24718 112.46478
           A27        107.61496 107.33983 107.16482 107.20859 107.53209
           D1         -48.75019 -50.64421 -46.54509 -35.72030 -11.46126
           D2        -166.04030-168.47646-164.53140-153.58369-129.66695
           D3          75.53872  73.36144  77.48333  88.43471 111.81862
           D4        -162.39704-164.48032-160.79994-151.59125-132.05199
           D5          80.31285  77.68743  81.21375  90.54535 109.74231
           D6         -38.10813 -40.47467 -36.77152 -27.43625  -8.77212
           D7         -75.52288 -83.38617 -95.33285-112.11263-138.03729
           D8          48.75545  40.80873  27.71983   8.87081 -19.34539
           D9         166.06060 157.67098 144.76138 126.95442 100.73148
           D10         38.11678  30.04987  18.38896   3.41244 -17.38242
           D11        162.39511 154.24478 141.44164 124.39587 101.30948
           D12        -80.29974 -88.89297-101.51681-117.52052-138.61365
           D13        -95.41142 -82.64696 -76.73980 -76.55050 -85.30666
           D14        145.28840 157.51583 162.50221 161.91624 153.43898
           D15         23.39373  34.93181  40.41067  40.23841  31.16408
           D16         27.00364  39.23003  44.68243  44.89254  36.75386
           D17        -92.29653 -80.60718 -76.07556 -76.64072 -84.50050
           D18        145.80879 156.80879 161.83290 161.68144 153.22461
           D19        147.91740 160.81272 166.33693 165.88920 156.59237
           D20         28.61723  40.97551  45.57895  44.35595  35.33801
           D21        -93.27744 -81.60852 -76.51260 -77.32189 -86.93688
           D22       -118.54095-136.40960-149.83388-159.10629-162.86128
           D23        121.55919 104.00858  90.51939  80.65028  75.71879
           D24          0.00881 -15.51749 -27.66304 -36.82772 -41.12497
           D25          0.00701 -19.70443 -33.66222 -42.81507 -45.91682
           D26       -119.89285-139.28625-153.30894-163.05850-167.33675
           D27        118.55677 101.18767  88.50862  79.46349  75.81948
           D28        119.89310 100.72391  87.47794  78.87281  75.28715
           D29         -0.00675 -18.85791 -32.16879 -41.37062 -46.13279
           D30       -121.55714-138.38399-150.35122-158.84863-162.97655
           D31        -23.41042  -8.41005   6.59004  21.58958  36.58895
           D32       -145.83118-130.62436-114.67741 -98.77702 -83.85880
           D33         93.27154 109.09512 125.50577 141.78720 156.57052
           D34         95.40333 112.26725 128.82993 144.60452 159.16885
           D35        -27.01742  -9.94707   7.56249  24.23792  38.72110
           D36       -147.91471-130.22758-112.25433 -95.19786 -80.84958
           D37       -145.29514-128.28119-111.46605 -95.42868 -80.18176
           D38         92.28411 109.50449 127.26651 144.20472 159.37049
           D39        -28.61318 -10.77602   7.44969  24.76894  39.79981
                           6         7
     Eigenvalues --    -0.82514  -0.81121
           R1           1.01947   1.02286
           R2           1.48623   1.52456
           R3           1.46618   1.46909
           R4           1.09972   1.09825
           R5           1.09492   1.09406
           R6           1.55140   1.57691
           R7           1.09416   1.09151
           R8           1.09357   1.09417
           R9           1.53133   1.52435
           R10          1.09455   1.09640
           R11          1.09289   1.08958
           R12          1.52113   1.52343
           R13          1.10421   1.10014
           R14          1.09500   1.09670
           A1         110.69686 107.99821
           A2         111.83262 111.15613
           A3         104.96159  99.08649
           A4         112.83860 111.91467
           A5         109.39322 109.22949
           A6         104.65956 105.26979
           A7         107.44447 107.88484
           A8         110.51062 111.37432
           A9         112.06392 111.18070
           A10        110.55219 112.23209
           A11        112.40284 111.42021
           A12        102.96137  98.17063
           A13        107.65074 108.63194
           A14        109.60825 110.78871
           A15        113.63751 115.37862
           A16        112.99210 113.16423
           A17        111.53142 113.10410
           A18         99.94210  96.04625
           A19        109.08307 109.85376
           A20        113.81245 114.46074
           A21        109.22865 109.64320
           A22         99.66375  96.31463
           A23        114.56357 115.87938
           A24        110.17979 109.97508
           A25        110.13347 111.53875
           A26        113.88777 114.30347
           A27        108.36668 108.59369
           D1          24.37654  19.67461
           D2         -95.16831 -99.72585
           D3         144.58515 140.80921
           D4         -96.45161 -96.19103
           D5         144.00355 144.40851
           D6          23.75701  24.94357
           D7        -167.29614-168.79547
           D8         -49.79692 -51.13528
           D9          72.68907  72.46626
           D10        -47.21982 -55.37841
           D11         70.27939  62.28179
           D12       -167.23461-174.11668
           D13       -108.08398-101.47259
           D14        131.59705 136.44709
           D15          8.92049  15.01772
           D16         13.66584  20.01452
           D17       -106.65313-102.06580
           D18        130.67031 136.50484
           D19        133.46718 140.36810
           D20         13.14822  18.28778
           D21       -109.52835-103.14158
           D22       -157.95811-167.53880
           D23         78.72938  66.71837
           D24        -36.64943 -47.65666
           D25        -40.28617 -49.93428
           D26       -163.59869-175.67711
           D27         81.02250  69.94786
           D28         80.19643  74.00612
           D29        -43.11608 -51.73671
           D30       -158.49489-166.11175
           D31         51.58897  66.58947
           D32        -69.17872 -54.46056
           D33        168.85556-178.12749
           D34        172.30708-174.54493
           D35         51.53938  64.40504
           D36        -70.42634 -59.26189
           D37        -65.52496 -50.59054
           D38        173.70735-171.64057
           D39         51.74163  64.69250
 GradGradGradGradGradGradGradGradGradGradGradGradGradGradGradGradGradGrad

                          Input orientation:                          
 ---------------------------------------------------------------------
 Center     Atomic      Atomic             Coordinates (Angstroms)
 Number     Number       Type             X           Y           Z
 ---------------------------------------------------------------------
      1          7           0        0.504677    0.277777    0.207761
      2          1           0       -0.012321    0.794416    0.923327
      3          6           0        1.753213    1.079533   -0.142402
      4          1           0        2.008825    1.803765    0.642644
      5          1           0        1.576561    1.635593   -1.067907
      6          6           0        2.895335    0.008598   -0.330315
      7          1           0        3.549741   -0.054483    0.540986
      8          1           0        3.506400    0.226491   -1.211416
      9          6           0        2.014621   -1.231052   -0.436349
     10          1           0        2.578190   -2.168363   -0.359365
     11          1           0        1.398702   -1.242344   -1.335071
     12          6           0        1.146795   -0.915457    0.775305
     13          1           0        1.755945   -0.750264    1.676393
     14          1           0        0.390316   -1.677208    0.999410
 ---------------------------------------------------------------------
                    Distance matrix (angstroms):
                    1          2          3          4          5
     1  N    0.000000
     2  H    1.022858   0.000000
     3  C    1.524555   2.081869   0.000000
     4  H    2.186372   2.276532   1.098247   0.000000
     5  H    2.149402   2.682748   1.094061   1.772320   0.000000
     6  C    2.465204   3.262452   1.576913   2.226022   2.220432
     7  H    3.081209   3.681725   2.231709   2.416162   3.055868
     8  H    3.320698   4.154644   2.223541   2.857982   2.393834
     9  C    2.229657   3.171708   2.343830   3.220927   2.967897
    10  H    3.256484   4.139337   3.358048   4.135940   3.996921
    11  H    2.343155   3.352572   2.634245   3.682714   2.895778
    12  C    1.469091   2.071021   2.278137   2.855672   3.176474
    13  H    2.186188   2.465747   2.579957   2.766884   3.640834
    14  H    2.112287   2.505361   3.280373   3.855390   4.081131
                    6          7          8          9         10
     6  C    0.000000
     7  H    1.091509   0.000000
     8  H    1.094174   1.775313   0.000000
     9  C    1.524346   2.167047   2.224987   0.000000
    10  H    2.200133   2.494601   2.706085   1.096398   0.000000
    11  H    2.194151   3.091532   2.571995   1.089580   1.789051
    12  C    2.265759   2.563266   3.289200   1.523426   2.214981
    13  H    2.429189   2.234047   3.515336   2.182143   2.613695
    14  H    3.299278   3.581251   4.268701   2.213329   2.621888
                   11         12         13         14
    11  H    0.000000
    12  C    2.150348   0.000000
    13  H    3.072243   1.100142   0.000000
    14  H    2.579874   1.096700   1.783949   0.000000
 Stoichiometry    C4H9N
 Framework group  C1[X(C4H9N)]
 Deg. of freedom    36
 Full point group                 C1      NOp   1
 Largest Abelian subgroup         C1      NOp   1
 Largest concise Abelian subgroup C1      NOp   1
                         Standard orientation:                         
 ---------------------------------------------------------------------
 Center     Atomic      Atomic             Coordinates (Angstroms)
 Number     Number       Type             X           Y           Z
 ---------------------------------------------------------------------
      1          7           0        1.208856    0.157577    0.317579
      2          1           0        2.080219    0.425871   -0.146086
      3          6           0        0.166698    1.229338    0.018408
      4          1           0        0.436416    1.829151   -0.861150
      5          1           0        0.088876    1.905363    0.875089
      6          6           0       -1.181503    0.444677   -0.212501
      7          1           0       -1.424198    0.343462   -1.271863
      8          1           0       -2.019869    0.933315    0.293061
      9          6           0       -0.755504   -0.895665    0.375409
     10          1           0       -1.454141   -1.708879    0.145894
     11          1           0       -0.576214   -0.853883    1.449325
     12          6           0        0.574403   -0.979339   -0.362949
     13          1           0        0.440245   -0.874383   -1.449825
     14          1           0        1.142110   -1.897127   -0.167695
 ---------------------------------------------------------------------
 Rotational constants (GHZ):           7.1179538           6.6687221           4.1651852

 **********************************************************************

            Population analysis using the SCF density.

 **********************************************************************

 Orbital symmetries:
       Occupied  (A) (A) (A) (A) (A) (A) (A) (A) (A) (A) (A) (A)
                 (A) (A) (A) (A) (A) (A) (A) (A)
       Virtual   (A) (A) (A) (A) (A) (A) (A) (A) (A) (A) (A) (A)
                 (A) (A) (A) (A) (A) (A) (A) (A) (A) (A) (A) (A)
                 (A) (A) (A) (A) (A) (A) (A) (A) (A) (A) (A) (A)
                 (A) (A) (A) (A) (A) (A) (A) (A) (A) (A) (A) (A)
                 (A) (A) (A) (A) (A) (A) (A) (A) (A) (A) (A) (A)
                 (A) (A) (A) (A) (A) (A) (A) (A) (A) (A) (A) (A)
                 (A)
 The electronic state is 1-A.
 Alpha  occ. eigenvalues --  -15.54390 -11.24648 -11.24054 -11.22162 -11.21256
 Alpha  occ. eigenvalues --   -1.21330  -1.02534  -0.95645  -0.80142  -0.78711
 Alpha  occ. eigenvalues --   -0.68162  -0.65490  -0.57935  -0.55393  -0.51408
 Alpha  occ. eigenvalues --   -0.49385  -0.47922  -0.46765  -0.45320  -0.37337
 Alpha virt. eigenvalues --    0.22594   0.26275   0.27384   0.29569   0.30911
 Alpha virt. eigenvalues --    0.32543   0.33199   0.34083   0.36887   0.38459
 Alpha virt. eigenvalues --    0.39211   0.41198   0.43887   0.47466   0.72123
 Alpha virt. eigenvalues --    0.74336   0.78529   0.79349   0.80141   0.85580
 Alpha virt. eigenvalues --    0.90758   0.93398   0.94041   0.95814   1.03312
 Alpha virt. eigenvalues --    1.06958   1.10631   1.11053   1.13055   1.15688
 Alpha virt. eigenvalues --    1.16104   1.17398   1.19393   1.21575   1.22778
 Alpha virt. eigenvalues --    1.23606   1.25323   1.29611   1.49489   1.52970
 Alpha virt. eigenvalues --    1.56537   1.64782   1.75939   1.87257   1.93282
 Alpha virt. eigenvalues --    2.07450   2.10450   2.13137   2.18675   2.19262
 Alpha virt. eigenvalues --    2.30217   2.31715   2.35631   2.40518   2.44395
 Alpha virt. eigenvalues --    2.49273   2.52741   2.60375   2.64442   2.73656
 Alpha virt. eigenvalues --    2.75523   2.79141   2.83644   2.85866   2.98313
 Alpha virt. eigenvalues --    3.03185   3.05219   3.21758   4.38211   4.63597
 Alpha virt. eigenvalues --    4.68223   4.90176   5.01138
          Condensed to atoms (all electrons):
               1          2          3          4          5          6
     1  N    7.138497   0.323313   0.274230  -0.041971  -0.043228  -0.048510
     2  H    0.323313   0.409804  -0.034716  -0.005924   0.002287   0.004508
     3  C    0.274230  -0.034716   5.005398   0.396575   0.400418   0.348090
     4  H   -0.041971  -0.005924   0.396575   0.571736  -0.035218  -0.040750
     5  H   -0.043228   0.002287   0.400418  -0.035218   0.532730  -0.033379
     6  C   -0.048510   0.004508   0.348090  -0.040750  -0.033379   5.162159
     7  H    0.002364  -0.000168  -0.035873  -0.005120   0.002933   0.402962
     8  H    0.001978  -0.000036  -0.033169   0.001825  -0.003519   0.398160
     9  C   -0.106496   0.007395  -0.088973   0.006156   0.000125   0.341454
    10  H    0.004847  -0.000169   0.005935  -0.000085  -0.000134  -0.035571
    11  H   -0.002926   0.000085  -0.002075   0.000136   0.000257  -0.035028
    12  C    0.271807  -0.033592  -0.096806   0.000375   0.005940  -0.100928
    13  H   -0.046630  -0.003961  -0.001689   0.003090  -0.000311  -0.013090
    14  H   -0.037736  -0.000692   0.006298  -0.000241  -0.000106   0.006164
               7          8          9         10         11         12
     1  N    0.002364   0.001978  -0.106496   0.004847  -0.002926   0.271807
     2  H   -0.000168  -0.000036   0.007395  -0.000169   0.000085  -0.033592
     3  C   -0.035873  -0.033169  -0.088973   0.005935  -0.002075  -0.096806
     4  H   -0.005120   0.001825   0.006156  -0.000085   0.000136   0.000375
     5  H    0.002933  -0.003519   0.000125  -0.000134   0.000257   0.005940
     6  C    0.402962   0.398160   0.341454  -0.035571  -0.035028  -0.100928
     7  H    0.537391  -0.026216  -0.041827  -0.002713   0.003267  -0.005347
     8  H   -0.026216   0.516336  -0.030573  -0.000854  -0.002110   0.006996
     9  C   -0.041827  -0.030573   5.158830   0.392206   0.403981   0.342819
    10  H   -0.002713  -0.000854   0.392206   0.535691  -0.022689  -0.034272
    11  H    0.003267  -0.002110   0.403981  -0.022689   0.498634  -0.038797
    12  C   -0.005347   0.006996   0.342819  -0.034272  -0.038797   5.033706
    13  H    0.000647   0.000165  -0.044641   0.001243   0.004056   0.399213
    14  H    0.000038  -0.000106  -0.027838  -0.001074  -0.002083   0.400784
              13         14
     1  N   -0.046630  -0.037736
     2  H   -0.003961  -0.000692
     3  C   -0.001689   0.006298
     4  H    0.003090  -0.000241
     5  H   -0.000311  -0.000106
     6  C   -0.013090   0.006164
     7  H    0.000647   0.000038
     8  H    0.000165  -0.000106
     9  C   -0.044641  -0.027838
    10  H    0.001243  -0.001074
    11  H    0.004056  -0.002083
    12  C    0.399213   0.400784
    13  H    0.594974  -0.036115
    14  H   -0.036115   0.526028
 Mulliken charges:
               1
     1  N   -0.689538
     2  H    0.331867
     3  C   -0.143641
     4  H    0.149416
     5  H    0.171206
     6  C   -0.356241
     7  H    0.167663
     8  H    0.171123
     9  C   -0.312619
    10  H    0.157640
    11  H    0.195292
    12  C   -0.151897
    13  H    0.143049
    14  H    0.166679
 Sum of Mulliken charges =  -0.00000
 Mulliken charges with hydrogens summed into heavy atoms:
               1
     1  N   -0.357670
     3  C    0.176981
     6  C   -0.017456
     9  C    0.040313
    12  C    0.157832
 Electronic spatial extent (au):  <R**2>=            379.5953
 Charge=              0.0000 electrons
 Dipole moment (field-independent basis, Debye):
    X=             -0.2904    Y=              0.2657    Z=             -1.3667  Tot=              1.4223
 Quadrupole moment (field-independent basis, Debye-Ang):
   XX=            -32.0672   YY=            -31.9406   ZZ=            -33.4407
   XY=              0.3139   XZ=             -2.3879   YZ=              0.0436
 Traceless Quadrupole moment (field-independent basis, Debye-Ang):
   XX=              0.4156   YY=              0.5422   ZZ=             -0.9578
   XY=              0.3139   XZ=             -2.3879   YZ=              0.0436
 Octapole moment (field-independent basis, Debye-Ang**2):
  XXX=              7.0647  YYY=              0.2730  ZZZ=             -1.2032  XYY=              1.7385
  XXY=              1.5089  XXZ=             -3.6248  XZZ=             -1.7127  YZZ=              0.5040
  YYZ=              0.5949  XYZ=             -0.8689
 Hexadecapole moment (field-independent basis, Debye-Ang**3):
 XXXX=           -202.5693 YYYY=           -214.2214 ZZZZ=            -78.5480 XXXY=              3.2920
 XXXZ=             -7.1770 YYYX=              0.0322 YYYZ=              1.0678 ZZZX=             -2.0572
 ZZZY=             -0.4683 XXYY=            -69.2551 XXZZ=            -52.5494 YYZZ=            -48.5329
 XXYZ=              0.0851 YYXZ=             -0.3446 ZZXY=              0.3324
 N-N= 1.915165335779D+02 E-N=-8.750926010632D+02  KE= 2.108121432946D+02
 1\1\GINC-C403-134\Scan\RMP2-FC\6-31G(d)\C4H9N1\TG455515\02-Apr-2021\0\
 \# opt=modredundant MP2/6-31g(d) Geom=PrintInputOrient\\PRLD Dihedral/
 Improper Scan\\0,1\N,0.5046768873,0.2777766634,0.2077607343\H,-0.01232
 08942,0.7944163673,0.9233273085\C,1.7532128172,1.0795325826,-0.1424015
 231\H,2.0088251939,1.8037645295,0.6426437252\H,1.5765610696,1.63559290
 79,-1.0679071295\C,2.8953348926,0.0085976543,-0.3303152359\H,3.5497411
 44,-0.054483041,0.5409855596\H,3.5063997234,0.2264913184,-1.211416368\
 C,2.0146210085,-1.231051988,-0.4363487814\H,2.5781896802,-2.1683634637
 ,-0.3593651494\H,1.3987020354,-1.2423439784,-1.3350709154\C,1.14679525
 01,-0.9154570297,0.7753046103\H,1.7559450786,-0.7502640233,1.676392882
 1\H,0.3903157128,-1.6772084691,0.9994102466\\Version=ES64L-G16RevA.03\
 State=1-A\HF=-211.1432102,-211.143088,-211.1427753,-211.1424973,-211.1
 428322,-211.1410568,-211.1235877\MP2=-211.8273514,-211.8273391,-211.82
 70219,-211.8263735,-211.8259418,-211.8251371,-211.8112098\RMSD=8.844e-
 09,2.145e-09,6.519e-09,2.223e-09,9.410e-09,3.054e-09,6.720e-09\PG=C01 
 [X(C4H9N1)]\\@


 WE DON'T KNOW ONE MILLIONTH OF ONE PERCENT ABOUT
 ANYTHING.
                                     T. A. EDISON.
 Job cpu time:       0 days  0 hours 18 minutes 58.9 seconds.
 Elapsed time:       0 days  0 hours 18 minutes 42.1 seconds.
 File lengths (MBytes):  RWF=     10 Int=      0 D2E=      0 Chk=      3 Scr=      1
 Normal termination of Gaussian 16 at Fri Apr  2 19:15:31 2021.
