 Entering Gaussian System, Link 0=g16
 Initial command:
 /home1/apps/gaussian/16rA.03/g16/l1.exe "/tmp/Gau-228035.inp" -scrdir="/tmp/"
 Entering Link 1 = /home1/apps/gaussian/16rA.03/g16/l1.exe PID=    228036.
  
 Copyright (c) 1988,1990,1992,1993,1995,1998,2003,2009,2016,
            Gaussian, Inc.  All Rights Reserved.
  
 This is part of the Gaussian(R) 16 program.  It is based on
 the Gaussian(R) 09 system (copyright 2009, Gaussian, Inc.),
 the Gaussian(R) 03 system (copyright 2003, Gaussian, Inc.),
 the Gaussian(R) 98 system (copyright 1998, Gaussian, Inc.),
 the Gaussian(R) 94 system (copyright 1995, Gaussian, Inc.),
 the Gaussian 92(TM) system (copyright 1992, Gaussian, Inc.),
 the Gaussian 90(TM) system (copyright 1990, Gaussian, Inc.),
 the Gaussian 88(TM) system (copyright 1988, Gaussian, Inc.),
 the Gaussian 86(TM) system (copyright 1986, Carnegie Mellon
 University), and the Gaussian 82(TM) system (copyright 1983,
 Carnegie Mellon University). Gaussian is a federally registered
 trademark of Gaussian, Inc.
  
 This software contains proprietary and confidential information,
 including trade secrets, belonging to Gaussian, Inc.
  
 This software is provided under written license and may be
 used, copied, transmitted, or stored only in accord with that
 written license.
  
 The following legend is applicable only to US Government
 contracts under FAR:
  
                    RESTRICTED RIGHTS LEGEND
  
 Use, reproduction and disclosure by the US Government is
 subject to restrictions as set forth in subparagraphs (a)
 and (c) of the Commercial Computer Software - Restricted
 Rights clause in FAR 52.227-19.
  
 Gaussian, Inc.
 340 Quinnipiac St., Bldg. 40, Wallingford CT 06492
  
  
 ---------------------------------------------------------------
 Warning -- This program may not be used in any manner that
 competes with the business of Gaussian, Inc. or will provide
 assistance to any competitor of Gaussian, Inc.  The licensee
 of this program is prohibited from giving any competitor of
 Gaussian, Inc. access to this program.  By using this program,
 the user acknowledges that Gaussian, Inc. is engaged in the
 business of creating and licensing software in the field of
 computational chemistry and represents and warrants to the
 licensee that it is not a competitor of Gaussian, Inc. and that
 it will not use this program in any manner prohibited above.
 ---------------------------------------------------------------
  

 Cite this work as:
 Gaussian 16, Revision A.03,
 M. J. Frisch, G. W. Trucks, H. B. Schlegel, G. E. Scuseria, 
 M. A. Robb, J. R. Cheeseman, G. Scalmani, V. Barone, 
 G. A. Petersson, H. Nakatsuji, X. Li, M. Caricato, A. V. Marenich, 
 J. Bloino, B. G. Janesko, R. Gomperts, B. Mennucci, H. P. Hratchian, 
 J. V. Ortiz, A. F. Izmaylov, J. L. Sonnenberg, D. Williams-Young, 
 F. Ding, F. Lipparini, F. Egidi, J. Goings, B. Peng, A. Petrone, 
 T. Henderson, D. Ranasinghe, V. G. Zakrzewski, J. Gao, N. Rega, 
 G. Zheng, W. Liang, M. Hada, M. Ehara, K. Toyota, R. Fukuda, 
 J. Hasegawa, M. Ishida, T. Nakajima, Y. Honda, O. Kitao, H. Nakai, 
 T. Vreven, K. Throssell, J. A. Montgomery, Jr., J. E. Peralta, 
 F. Ogliaro, M. J. Bearpark, J. J. Heyd, E. N. Brothers, K. N. Kudin, 
 V. N. Staroverov, T. A. Keith, R. Kobayashi, J. Normand, 
 K. Raghavachari, A. P. Rendell, J. C. Burant, S. S. Iyengar, 
 J. Tomasi, M. Cossi, J. M. Millam, M. Klene, C. Adamo, R. Cammi, 
 J. W. Ochterski, R. L. Martin, K. Morokuma, O. Farkas, 
 J. B. Foresman, and D. J. Fox, Gaussian, Inc., Wallingford CT, 2016.
 
 ******************************************
 Gaussian 16:  ES64L-G16RevA.03 25-Dec-2016
                 2-Apr-2021 
 ******************************************
 %chk=PRLD.scan5.neg.chk
 %nproc=1
 Will use up to    1 processors via shared memory.
 %mem=1GB
 -----------------------------------------------------
 # opt=modredundant MP2/6-31g(d) Geom=PrintInputOrient
 -----------------------------------------------------
 1/18=120,19=15,38=1/1,3;
 2/9=2110,12=2,17=6,18=5,40=1/2;
 3/5=1,6=6,7=1,11=9,25=1,30=1,71=1/1,2,3;
 4//1;
 5/5=2,38=5/2;
 8/6=4,10=2/1;
 9/15=2,16=-3/6;
 10/5=1/2;
 6/7=2,8=2,9=2,10=2/1;
 7/12=2/1,2,3,16;
 1/18=20,19=15/3(2);
 2/9=2110/2;
 99//99;
 2/9=2110/2;
 3/5=1,6=6,7=1,11=9,25=1,30=1,71=1/1,2,3;
 4/5=5,16=3,69=1/1;
 5/5=2,38=5/2;
 8/6=4,10=2/1;
 9/15=2,16=-3/6;
 10/5=1/2;
 7/12=2/1,2,3,16;
 1/18=20,19=15/3(-8);
 2/9=2110/2;
 6/7=2,8=2,9=2,10=2/1;
 99//99;
 ---------------------------
 PRLD Dihedral/Improper Scan
 ---------------------------
 Symbolic Z-matrix:
 Charge =  0 Multiplicity = 1
 N1                    0.844     0.456     0.923 
 H2                    1.372     0.495     1.798 
 C3                    1.643     1.125    -0.113 
 H4                    2.        2.097     0.243 
 H5                    0.987     1.307    -0.971 
 C6                    2.779     0.153    -0.504 
 H7                    3.689     0.384     0.059 
 H8                    3.031     0.222    -1.566 
 C9                    2.231    -1.24     -0.112 
 H10                   2.866    -1.707     0.647 
 H11                   2.185    -1.928    -0.962 
 C12                   0.83     -0.941     0.469 
 H13                   0.542    -1.609     1.286 
 H14                   0.068    -1.027    -0.314 
 
 The following ModRedundant input section has been read:
 D       3       6       9      12 S   6 -15.00                                
 

 GradGradGradGradGradGradGradGradGradGradGradGradGradGradGradGradGradGrad
 Berny optimization.
 Initialization pass.
                           ----------------------------
                           !    Initial Parameters    !
                           ! (Angstroms and Degrees)  !
 --------------------------                            --------------------------
 ! Name  Definition              Value          Derivative Info.                !
 --------------------------------------------------------------------------------
 ! R1    R(1,2)                  1.0227         estimate D2E/DX2                !
 ! R2    R(1,3)                  1.4694         estimate D2E/DX2                !
 ! R3    R(1,12)                 1.469          estimate D2E/DX2                !
 ! R4    R(3,4)                  1.095          estimate D2E/DX2                !
 ! R5    R(3,5)                  1.0953         estimate D2E/DX2                !
 ! R6    R(3,6)                  1.5454         estimate D2E/DX2                !
 ! R7    R(6,7)                  1.0947         estimate D2E/DX2                !
 ! R8    R(6,8)                  1.0937         estimate D2E/DX2                !
 ! R9    R(6,9)                  1.5474         estimate D2E/DX2                !
 ! R10   R(9,10)                 1.0943         estimate D2E/DX2                !
 ! R11   R(9,11)                 1.0945         estimate D2E/DX2                !
 ! R12   R(9,12)                 1.5459         estimate D2E/DX2                !
 ! R13   R(12,13)                1.0939         estimate D2E/DX2                !
 ! R14   R(12,14)                1.096          estimate D2E/DX2                !
 ! A1    A(2,1,3)              107.7654         estimate D2E/DX2                !
 ! A2    A(2,1,12)             107.7946         estimate D2E/DX2                !
 ! A3    A(3,1,12)             102.7239         estimate D2E/DX2                !
 ! A4    A(1,3,4)              110.6221         estimate D2E/DX2                !
 ! A5    A(1,3,5)              107.5946         estimate D2E/DX2                !
 ! A6    A(1,3,6)              106.9617         estimate D2E/DX2                !
 ! A7    A(4,3,5)              107.6053         estimate D2E/DX2                !
 ! A8    A(4,3,6)              113.6363         estimate D2E/DX2                !
 ! A9    A(5,3,6)              110.279          estimate D2E/DX2                !
 ! A10   A(3,6,7)              110.3782         estimate D2E/DX2                !
 ! A11   A(3,6,8)              112.0481         estimate D2E/DX2                !
 ! A12   A(3,6,9)              103.9924         estimate D2E/DX2                !
 ! A13   A(7,6,8)              107.1301         estimate D2E/DX2                !
 ! A14   A(7,6,9)              110.7358         estimate D2E/DX2                !
 ! A15   A(8,6,9)              112.6059         estimate D2E/DX2                !
 ! A16   A(6,9,10)             110.7565         estimate D2E/DX2                !
 ! A17   A(6,9,11)             112.5829         estimate D2E/DX2                !
 ! A18   A(6,9,12)             104.0073         estimate D2E/DX2                !
 ! A19   A(10,9,11)            107.145          estimate D2E/DX2                !
 ! A20   A(10,9,12)            110.3511         estimate D2E/DX2                !
 ! A21   A(11,9,12)            112.0469         estimate D2E/DX2                !
 ! A22   A(1,12,9)             106.9451         estimate D2E/DX2                !
 ! A23   A(1,12,13)            110.635          estimate D2E/DX2                !
 ! A24   A(1,12,14)            107.581          estimate D2E/DX2                !
 ! A25   A(9,12,13)            113.6523         estimate D2E/DX2                !
 ! A26   A(9,12,14)            110.2689         estimate D2E/DX2                !
 ! A27   A(13,12,14)           107.615          estimate D2E/DX2                !
 ! D1    D(2,1,3,4)            -48.7385         estimate D2E/DX2                !
 ! D2    D(2,1,3,5)           -166.0198         estimate D2E/DX2                !
 ! D3    D(2,1,3,6)             75.4998         estimate D2E/DX2                !
 ! D4    D(12,1,3,4)          -162.4            estimate D2E/DX2                !
 ! D5    D(12,1,3,5)            80.3186         estimate D2E/DX2                !
 ! D6    D(12,1,3,6)           -38.1617         estimate D2E/DX2                !
 ! D7    D(2,1,12,9)           -75.5014         estimate D2E/DX2                !
 ! D8    D(2,1,12,13)           48.7538         estimate D2E/DX2                !
 ! D9    D(2,1,12,14)          166.0459         estimate D2E/DX2                !
 ! D10   D(3,1,12,9)            38.1387         estimate D2E/DX2                !
 ! D11   D(3,1,12,13)          162.3939         estimate D2E/DX2                !
 ! D12   D(3,1,12,14)          -80.314          estimate D2E/DX2                !
 ! D13   D(1,3,6,7)            -95.3684         estimate D2E/DX2                !
 ! D14   D(1,3,6,8)            145.3276         estimate D2E/DX2                !
 ! D15   D(1,3,6,9)             23.4354         estimate D2E/DX2                !
 ! D16   D(4,3,6,7)             27.004          estimate D2E/DX2                !
 ! D17   D(4,3,6,8)            -92.2999         estimate D2E/DX2                !
 ! D18   D(4,3,6,9)            145.8078         estimate D2E/DX2                !
 ! D19   D(5,3,6,7)            147.9132         estimate D2E/DX2                !
 ! D20   D(5,3,6,8)             28.6092         estimate D2E/DX2                !
 ! D21   D(5,3,6,9)            -93.2831         estimate D2E/DX2                !
 ! D22   D(3,6,9,10)          -118.5629         estimate D2E/DX2                !
 ! D23   D(3,6,9,11)           121.4993         estimate D2E/DX2                !
 ! D24   D(3,6,9,12)            -0.0176         Scan                            !
 ! D25   D(7,6,9,10)            -0.0044         estimate D2E/DX2                !
 ! D26   D(7,6,9,11)          -119.9421         estimate D2E/DX2                !
 ! D27   D(7,6,9,12)           118.541          estimate D2E/DX2                !
 ! D28   D(8,6,9,10)           119.9156         estimate D2E/DX2                !
 ! D29   D(8,6,9,11)            -0.0222         estimate D2E/DX2                !
 ! D30   D(8,6,9,12)          -121.5391         estimate D2E/DX2                !
 ! D31   D(6,9,12,1)           -23.4104         estimate D2E/DX2                !
 ! D32   D(6,9,12,13)         -145.7976         estimate D2E/DX2                !
 ! D33   D(6,9,12,14)           93.2771         estimate D2E/DX2                !
 ! D34   D(10,9,12,1)           95.4127         estimate D2E/DX2                !
 ! D35   D(10,9,12,13)         -26.9744         estimate D2E/DX2                !
 ! D36   D(10,9,12,14)        -147.8998         estimate D2E/DX2                !
 ! D37   D(11,9,12,1)         -145.2836         estimate D2E/DX2                !
 ! D38   D(11,9,12,13)          92.3293         estimate D2E/DX2                !
 ! D39   D(11,9,12,14)         -28.5961         estimate D2E/DX2                !
 --------------------------------------------------------------------------------
 Trust Radius=3.00D-01 FncErr=1.00D-07 GrdErr=1.00D-07 EigMax=2.50D+02 EigMin=1.00D-04
 Number of optimizations in scan=   7
 Number of steps in this run=     90 maximum allowed number of steps=    100.
 GradGradGradGradGradGradGradGradGradGradGradGradGradGradGradGradGradGrad

                          Input orientation:                          
 ---------------------------------------------------------------------
 Center     Atomic      Atomic             Coordinates (Angstroms)
 Number     Number       Type             X           Y           Z
 ---------------------------------------------------------------------
      1          7           0        0.844000    0.456000    0.923000
      2          1           0        1.372000    0.495000    1.798000
      3          6           0        1.643000    1.125000   -0.113000
      4          1           0        2.000000    2.097000    0.243000
      5          1           0        0.987000    1.307000   -0.971000
      6          6           0        2.779000    0.153000   -0.504000
      7          1           0        3.689000    0.384000    0.059000
      8          1           0        3.031000    0.222000   -1.566000
      9          6           0        2.231000   -1.240000   -0.112000
     10          1           0        2.866000   -1.707000    0.647000
     11          1           0        2.185000   -1.928000   -0.962000
     12          6           0        0.830000   -0.941000    0.469000
     13          1           0        0.542000   -1.609000    1.286000
     14          1           0        0.068000   -1.027000   -0.314000
 ---------------------------------------------------------------------
                    Distance matrix (angstroms):
                    1          2          3          4          5
     1  N    0.000000
     2  H    1.022707   0.000000
     3  C    1.469441   2.030335   0.000000
     4  H    2.119343   2.319227   1.094974   0.000000
     5  H    2.081318   2.911173   1.095274   1.767502   0.000000
     6  C    2.423296   2.719525   1.545368   2.223508   2.181987
     7  H    2.974173   2.899126   2.182838   2.412664   3.035397
     8  H    3.321573   3.760759   2.202989   2.801975   2.389390
     9  C    2.423099   2.719597   2.437000   3.363771   2.961862
    10  H    2.973757   2.899248   3.177035   3.922192   3.902917
    11  H    3.321891   3.761582   3.214868   4.205577   3.449712
    12  C    1.468986   2.030296   2.295223   3.263345   2.674276
    13  H    2.118301   2.319021   3.262539   4.116801   3.714180
    14  H    2.081258   2.911605   2.674347   3.715138   2.593023
                    6          7          8          9         10
     6  C    0.000000
     7  H    1.094728   0.000000
     8  H    1.093668   1.760634   0.000000
     9  C    1.547390   2.189151   2.211687   0.000000
    10  H    2.189057   2.322790   2.940346   1.094255   0.000000
    11  H    2.212049   2.941054   2.388102   1.094514   1.761103
    12  C    2.437656   3.177673   3.215306   1.545886   2.182598
    13  H    3.363467   3.921886   4.204948   2.223350   2.412240
    14  H    2.962773   3.904061   3.450634   2.182829   3.035577
                   11         12         13         14
    11  H    0.000000
    12  C    2.204077   0.000000
    13  H    2.802626   1.093918   0.000000
    14  H    2.390271   1.095960   1.767314   0.000000
 Stoichiometry    C4H9N
 Framework group  C1[X(C4H9N)]
 Deg. of freedom    36
 Full point group                 C1      NOp   1
 Largest Abelian subgroup         C1      NOp   1
 Largest concise Abelian subgroup C1      NOp   1
                         Standard orientation:                         
 ---------------------------------------------------------------------
 Center     Atomic      Atomic             Coordinates (Angstroms)
 Number     Number       Type             X           Y           Z
 ---------------------------------------------------------------------
      1          7           0       -0.009754   -1.267896   -0.216048
      2          1           0       -0.009609   -1.307741   -1.237979
      3          6           0        1.144047   -0.459296    0.201285
      4          1           0        2.052841   -0.790293   -0.312042
      5          1           0        1.291688   -0.622098    1.274281
      6          6           0        0.781546    1.017994   -0.071425
      7          1           0        1.171547    1.332796   -1.044681
      8          1           0        1.207027    1.690375    0.678894
      9          6           0       -0.765800    1.029688   -0.071443
     10          1           0       -1.151178    1.350244   -1.044131
     11          1           0       -1.181004    1.708768    0.679833
     12          6           0       -1.151114   -0.442432    0.200878
     13          1           0       -2.063843   -0.759288   -0.312137
     14          1           0       -1.301266   -0.603214    1.274532
 ---------------------------------------------------------------------
 Rotational constants (GHZ):           6.8866106           6.6914801           3.9136725
 Standard basis: 6-31G(d) (6D, 7F)
 There are    93 symmetry adapted cartesian basis functions of A   symmetry.
 There are    93 symmetry adapted basis functions of A   symmetry.
    93 basis functions,   176 primitive gaussians,    93 cartesian basis functions
    20 alpha electrons       20 beta electrons
       nuclear repulsion energy       190.0136865772 Hartrees.
 NAtoms=   14 NActive=   14 NUniq=   14 SFac= 1.00D+00 NAtFMM=   60 NAOKFM=F Big=F
 Integral buffers will be    131072 words long.
 Raffenetti 1 integral format.
 Two-electron integral symmetry is turned on.
 One-electron integrals computed using PRISM.
 NBasis=    93 RedAO= T EigKep=  3.15D-03  NBF=    93
 NBsUse=    93 1.00D-06 EigRej= -1.00D+00 NBFU=    93
 ExpMin= 1.61D-01 ExpMax= 4.17D+03 ExpMxC= 6.27D+02 IAcc=3 IRadAn=         5 AccDes= 0.00D+00
 Harris functional with IExCor=  205 and IRadAn=       5 diagonalized for initial guess.
 HarFok:  IExCor=  205 AccDes= 0.00D+00 IRadAn=         5 IDoV= 1 UseB2=F ITyADJ=14
 ICtDFT=  3500011 ScaDFX=  1.000000  1.000000  1.000000  1.000000
 FoFCou: FMM=F IPFlag=           0 FMFlag=      100000 FMFlg1=           0
         NFxFlg=           0 DoJE=T BraDBF=F KetDBF=T FulRan=T
         wScrn=  0.000000 ICntrl=       500 IOpCl=  0 I1Cent=   200000004 NGrid=           0
         NMat0=    1 NMatS0=      1 NMatT0=    0 NMatD0=    1 NMtDS0=    0 NMtDT0=    0
 Petite list used in FoFCou.
 Keep R1 ints in memory in canonical form, NReq=10436288.
 Requested convergence on RMS density matrix=1.00D-08 within 128 cycles.
 Requested convergence on MAX density matrix=1.00D-06.
 Requested convergence on             energy=1.00D-06.
 No special actions if energy rises.
 SCF Done:  E(RHF) =  -211.143200098     A.U. after   12 cycles
            NFock= 12  Conv=0.39D-08     -V/T= 2.0015
 ExpMin= 1.61D-01 ExpMax= 4.17D+03 ExpMxC= 6.27D+02 IAcc=3 IRadAn=         5 AccDes= 0.00D+00
 HarFok:  IExCor=  205 AccDes= 0.00D+00 IRadAn=         5 IDoV=-2 UseB2=F ITyADJ=14
 ICtDFT= 12500011 ScaDFX=  1.000000  1.000000  1.000000  1.000000
 Range of M.O.s used for correlation:     6    93
 NBasis=    93 NAE=    20 NBE=    20 NFC=     5 NFV=     0
 NROrb=     88 NOA=    15 NOB=    15 NVA=    73 NVB=    73
 Fully direct method using O(ONN) memory.
 JobTyp=1 Pass  1:  I=   6 to  20 NPSUse=  1 ParTrn=F ParDer=F DoDerP=T.
 Spin components of T(2) and E(2):
     alpha-alpha T2 =       0.2790801328D-01 E2=     -0.8405127363D-01
     alpha-beta  T2 =       0.1679168201D+00 E2=     -0.5160463410D+00
     beta-beta   T2 =       0.2790801328D-01 E2=     -0.8405127363D-01
 ANorm=    0.1106224591D+01
 E2 =    -0.6841488883D+00 EUMP2 =    -0.21182734898599D+03
          IDoAtm=11111111111111
          Differentiating once with respect to electric field.
                with respect to dipole field.
          Differentiating once with respect to nuclear coordinates.
 Keep R1 ints in memory in canonical form, NReq=10438744.
          There are     1 degrees of freedom in the 1st order CPHF.  IDoFFX=0 NUNeed=     1.
 LinEq1:  Iter=  0 NonCon=     1 RMS=4.26D-03 Max=4.54D-02 NDo=     1
 AX will form     1 AO Fock derivatives at one time.
 LinEq1:  Iter=  1 NonCon=     1 RMS=1.43D-03 Max=1.40D-02 NDo=     1
 LinEq1:  Iter=  2 NonCon=     1 RMS=2.90D-04 Max=3.43D-03 NDo=     1
 LinEq1:  Iter=  3 NonCon=     1 RMS=5.58D-05 Max=4.08D-04 NDo=     1
 LinEq1:  Iter=  4 NonCon=     1 RMS=1.18D-05 Max=1.55D-04 NDo=     1
 LinEq1:  Iter=  5 NonCon=     1 RMS=4.47D-06 Max=3.98D-05 NDo=     1
 LinEq1:  Iter=  6 NonCon=     1 RMS=1.05D-06 Max=1.56D-05 NDo=     1
 LinEq1:  Iter=  7 NonCon=     1 RMS=1.91D-07 Max=1.83D-06 NDo=     1
 LinEq1:  Iter=  8 NonCon=     1 RMS=6.29D-08 Max=5.75D-07 NDo=     1
 LinEq1:  Iter=  9 NonCon=     1 RMS=1.37D-08 Max=1.24D-07 NDo=     1
 LinEq1:  Iter= 10 NonCon=     1 RMS=3.65D-09 Max=2.96D-08 NDo=     1
 LinEq1:  Iter= 11 NonCon=     1 RMS=6.11D-10 Max=7.96D-09 NDo=     1
 LinEq1:  Iter= 12 NonCon=     1 RMS=1.20D-10 Max=1.50D-09 NDo=     1
 LinEq1:  Iter= 13 NonCon=     0 RMS=1.91D-11 Max=1.76D-10 NDo=     1
 Linear equations converged to 1.000D-10 1.000D-09 after    13 iterations.
 End of Minotr F.D. properties file   721 does not exist.
 End of Minotr F.D. properties file   722 does not exist.
 End of Minotr F.D. properties file   788 does not exist.

 **********************************************************************

            Population analysis using the SCF density.

 **********************************************************************

 Orbital symmetries:
       Occupied  (A) (A) (A) (A) (A) (A) (A) (A) (A) (A) (A) (A)
                 (A) (A) (A) (A) (A) (A) (A) (A)
       Virtual   (A) (A) (A) (A) (A) (A) (A) (A) (A) (A) (A) (A)
                 (A) (A) (A) (A) (A) (A) (A) (A) (A) (A) (A) (A)
                 (A) (A) (A) (A) (A) (A) (A) (A) (A) (A) (A) (A)
                 (A) (A) (A) (A) (A) (A) (A) (A) (A) (A) (A) (A)
                 (A) (A) (A) (A) (A) (A) (A) (A) (A) (A) (A) (A)
                 (A) (A) (A) (A) (A) (A) (A) (A) (A) (A) (A) (A)
                 (A)
 The electronic state is 1-A.
 Alpha  occ. eigenvalues --  -15.54076 -11.24200 -11.24195 -11.21855 -11.21799
 Alpha  occ. eigenvalues --   -1.21663  -1.01921  -0.96899  -0.81410  -0.78334
 Alpha  occ. eigenvalues --   -0.67516  -0.63699  -0.58968  -0.58396  -0.50622
 Alpha  occ. eigenvalues --   -0.49289  -0.47912  -0.47626  -0.45740  -0.37275
 Alpha virt. eigenvalues --    0.21279   0.24725   0.28660   0.29029   0.30117
 Alpha virt. eigenvalues --    0.32558   0.33858   0.33958   0.36392   0.37738
 Alpha virt. eigenvalues --    0.40785   0.41401   0.48517   0.52442   0.72779
 Alpha virt. eigenvalues --    0.76267   0.76616   0.79767   0.80365   0.83842
 Alpha virt. eigenvalues --    0.90478   0.92044   0.92595   0.94963   1.01860
 Alpha virt. eigenvalues --    1.02452   1.09480   1.10988   1.12808   1.13150
 Alpha virt. eigenvalues --    1.15438   1.17173   1.19496   1.20850   1.21106
 Alpha virt. eigenvalues --    1.23722   1.24020   1.24151   1.49539   1.52543
 Alpha virt. eigenvalues --    1.59180   1.59545   1.69288   1.90975   2.00838
 Alpha virt. eigenvalues --    2.08684   2.12260   2.13555   2.19833   2.22442
 Alpha virt. eigenvalues --    2.29045   2.31775   2.35028   2.42288   2.43267
 Alpha virt. eigenvalues --    2.43361   2.51046   2.57266   2.59218   2.71449
 Alpha virt. eigenvalues --    2.73627   2.81719   2.90009   2.95574   2.97825
 Alpha virt. eigenvalues --    2.98905   3.02819   3.24107   4.34967   4.60737
 Alpha virt. eigenvalues --    4.68019   4.86124   5.04389
          Condensed to atoms (all electrons):
               1          2          3          4          5          6
     1  N    7.058662   0.327541   0.294203  -0.033404  -0.047556  -0.084999
     2  H    0.327541   0.433304  -0.042392  -0.005379   0.005680  -0.000687
     3  C    0.294203  -0.042392   4.977886   0.403748   0.406065   0.333688
     4  H   -0.033404  -0.005379   0.403748   0.521240  -0.026325  -0.035555
     5  H   -0.047556   0.005680   0.406065  -0.026325   0.544869  -0.053864
     6  C   -0.084999  -0.000687   0.333688  -0.035555  -0.053864   5.205597
     7  H    0.002637   0.000959  -0.038300  -0.004204   0.003824   0.396024
     8  H    0.004386  -0.000026  -0.032387   0.001335  -0.002463   0.391464
     9  C   -0.085089  -0.000691  -0.061393   0.003840  -0.000390   0.321496
    10  H    0.002649   0.000958   0.003257  -0.000161  -0.000013  -0.038489
    11  H    0.004384  -0.000026   0.002984  -0.000064   0.000166  -0.033459
    12  C    0.294002  -0.042370  -0.094809   0.006117  -0.001884  -0.061284
    13  H   -0.033416  -0.005385   0.006123  -0.000114  -0.000171   0.003829
    14  H   -0.047622   0.005682  -0.001900  -0.000171   0.003456  -0.000382
               7          8          9         10         11         12
     1  N    0.002637   0.004386  -0.085089   0.002649   0.004384   0.294002
     2  H    0.000959  -0.000026  -0.000691   0.000958  -0.000026  -0.042370
     3  C   -0.038300  -0.032387  -0.061393   0.003257   0.002984  -0.094809
     4  H   -0.004204   0.001335   0.003840  -0.000161  -0.000064   0.006117
     5  H    0.003824  -0.002463  -0.000390  -0.000013   0.000166  -0.001884
     6  C    0.396024   0.391464   0.321496  -0.038489  -0.033459  -0.061284
     7  H    0.542616  -0.025836  -0.038527  -0.006280   0.002599   0.003251
     8  H   -0.025836   0.527014  -0.033400   0.002596  -0.003631   0.002974
     9  C   -0.038527  -0.033400   5.205831   0.395992   0.391377   0.333836
    10  H   -0.006280   0.002596   0.395992   0.542443  -0.025801  -0.038327
    11  H    0.002599  -0.003631   0.391377  -0.025801   0.527314  -0.032361
    12  C    0.003251   0.002974   0.333836  -0.038327  -0.032361   4.977646
    13  H   -0.000161  -0.000063  -0.035505  -0.004188   0.001332   0.403827
    14  H   -0.000013   0.000165  -0.053852   0.003822  -0.002460   0.406044
              13         14
     1  N   -0.033416  -0.047622
     2  H   -0.005385   0.005682
     3  C    0.006123  -0.001900
     4  H   -0.000114  -0.000171
     5  H   -0.000171   0.003456
     6  C    0.003829  -0.000382
     7  H   -0.000161  -0.000013
     8  H   -0.000063   0.000165
     9  C   -0.035505  -0.053852
    10  H   -0.004188   0.003822
    11  H    0.001332  -0.002460
    12  C    0.403827   0.406044
    13  H    0.520894  -0.026326
    14  H   -0.026326   0.545162
 Mulliken charges:
               1
     1  N   -0.656379
     2  H    0.322831
     3  C   -0.156772
     4  H    0.169095
     5  H    0.168606
     6  C   -0.343380
     7  H    0.161410
     8  H    0.167872
     9  C   -0.343527
    10  H    0.161542
    11  H    0.167645
    12  C   -0.156662
    13  H    0.169324
    14  H    0.168395
 Sum of Mulliken charges =  -0.00000
 Mulliken charges with hydrogens summed into heavy atoms:
               1
     1  N   -0.333548
     3  C    0.180929
     6  C   -0.014098
     9  C   -0.014340
    12  C    0.181057
 Electronic spatial extent (au):  <R**2>=            390.2955
 Charge=             -0.0000 electrons
 Dipole moment (field-independent basis, Debye):
    X=              0.0108    Y=              1.4000    Z=             -0.6708  Tot=              1.5525
 Quadrupole moment (field-independent basis, Debye-Ang):
   XX=            -31.4430   YY=            -37.4386   ZZ=            -30.3356
   XY=             -0.0423   XZ=              0.0141   YZ=              1.4414
 Traceless Quadrupole moment (field-independent basis, Debye-Ang):
   XX=              1.6294   YY=             -4.3662   ZZ=              2.7368
   XY=             -0.0423   XZ=              0.0141   YZ=              1.4414
 Octapole moment (field-independent basis, Debye-Ang**2):
  XXX=             -0.0557  YYY=              7.4680  ZZZ=             -2.5630  XYY=              0.0925
  XXY=             -2.2856  XXZ=             -1.0006  XZZ=             -0.0165  YZZ=             -2.3218
  YYZ=             -1.4684  XYZ=             -0.0024
 Hexadecapole moment (field-independent basis, Debye-Ang**3):
 XXXX=           -226.6934 YYYY=           -248.7377 ZZZZ=            -65.8087 XXXY=              0.0072
 XXXZ=              0.0625 YYYX=             -0.1840 YYYZ=              5.7507 ZZZX=              0.0341
 ZZZY=              3.2304 XXYY=            -75.0449 XXZZ=            -48.5104 YYZZ=            -45.1589
 XXYZ=              2.0821 YYXZ=              0.0159 ZZXY=              0.0194
 N-N= 1.900136865772D+02 E-N=-8.720763185249D+02  KE= 2.108304137868D+02
 Calling FoFJK, ICntrl=  10002127 FMM=F ISym2X=0 I1Cent= 0 IOpClX= 0 NMat=1 NMatS=1 NMatT=0.
 ***** Axes restored to original set *****
 -------------------------------------------------------------------
 Center     Atomic                   Forces (Hartrees/Bohr)
 Number     Number              X              Y              Z
 -------------------------------------------------------------------
      1        7           0.000067218    0.000324295    0.000355385
      2        1          -0.000147219   -0.000035560   -0.000241089
      3        6           0.000758105    0.000773310    0.000735129
      4        1          -0.000288273   -0.000698691   -0.000271797
      5        1          -0.000308412    0.000033250   -0.000433494
      6        6          -0.000098258    0.000152779    0.000315185
      7        1          -0.000099833   -0.000004959   -0.000060197
      8        1           0.000110722   -0.000045813   -0.000301852
      9        6          -0.000507108   -0.000177978   -0.000275408
     10        1           0.000133008   -0.000094664    0.000103544
     11        1           0.000074374    0.000132703    0.000198827
     12        6           0.000296758   -0.000382461    0.000076681
     13        1           0.000028013    0.000050298   -0.000099903
     14        1          -0.000019094   -0.000026509   -0.000101012
 -------------------------------------------------------------------
 Cartesian Forces:  Max     0.000773310 RMS     0.000306300

 GradGradGradGradGradGradGradGradGradGradGradGradGradGradGradGradGradGrad
 Berny optimization.
 FormGI is forming the generalized inverse of G from B-inverse, IUseBI=4.
 Internal  Forces:  Max     0.000802576 RMS     0.000137397
 Search for a local minimum.
 Step number   1 out of a maximum of   90 on scan point     1 out of     7
 All quantities printed in internal units (Hartrees-Bohrs-Radians)
 Mixed Optimization -- En-DIIS/RFO-DIIS
 Second derivative matrix not updated -- first step.
 ITU=  0
     Eigenvalues ---    0.00752   0.01323   0.02318   0.02345   0.04343
     Eigenvalues ---    0.04652   0.04950   0.05433   0.05518   0.05764
     Eigenvalues ---    0.06010   0.06889   0.06892   0.08231   0.08755
     Eigenvalues ---    0.08799   0.09333   0.11027   0.11559   0.20193
     Eigenvalues ---    0.21324   0.26384   0.27012   0.28012   0.32971
     Eigenvalues ---    0.34133   0.34210   0.34244   0.34272   0.34296
     Eigenvalues ---    0.34325   0.34364   0.34392   0.34404   0.43909
     Eigenvalues --- 1000.000001000.000001000.000001000.000001000.00000
     Eigenvalues --- 1000.000001000.000001000.000001000.000001000.00000
     Eigenvalues --- 1000.000001000.000001000.000001000.000001000.00000
     Eigenvalues --- 1000.000001000.000001000.000001000.000001000.00000
     Eigenvalues --- 1000.000001000.000001000.000001000.000001000.00000
     Eigenvalues --- 1000.000001000.000001000.000001000.000001000.00000
     Eigenvalues --- 1000.000001000.000001000.000001000.000001000.00000
     Eigenvalues --- 1000.000001000.000001000.000001000.000001000.00000
     Eigenvalues --- 1000.000001000.000001000.000001000.000001000.00000
 RFO step:  Lambda=-4.87400371D-06 EMin= 7.51733785D-03
 Linear search not attempted -- first point.
 Iteration  1 RMS(Cart)=  0.00037954 RMS(Int)=  0.00000020
 Iteration  2 RMS(Cart)=  0.00000017 RMS(Int)=  0.00000008
 Iteration  1 RMS(Cart)=  0.00000000 RMS(Int)=  0.00000001
 Variable       Old X    -DE/DX   Delta X   Delta X   Delta X     New X
                                 (Linear)    (Quad)   (Total)
    R1        1.93264  -0.00028   0.00000  -0.00065  -0.00065   1.93199
    R2        2.77684   0.00007   0.00000   0.00024   0.00024   2.77708
    R3        2.77598   0.00035   0.00000   0.00103   0.00103   2.77701
    R4        2.06920  -0.00080   0.00000  -0.00234  -0.00234   2.06686
    R5        2.06977   0.00053   0.00000   0.00155   0.00155   2.07132
    R6        2.92032  -0.00004   0.00000  -0.00014  -0.00014   2.92018
    R7        2.06874  -0.00011   0.00000  -0.00034  -0.00034   2.06840
    R8        2.06673   0.00032   0.00000   0.00092   0.00092   2.06765
    R9        2.92414   0.00015   0.00000   0.00045   0.00045   2.92459
   R10        2.06784   0.00019   0.00000   0.00055   0.00055   2.06839
   R11        2.06833  -0.00024   0.00000  -0.00070  -0.00070   2.06763
   R12        2.92130  -0.00026   0.00000  -0.00097  -0.00097   2.92033
   R13        2.06721  -0.00011   0.00000  -0.00033  -0.00033   2.06688
   R14        2.07106   0.00009   0.00000   0.00026   0.00026   2.07132
    A1        1.88086   0.00002   0.00000   0.00003   0.00003   1.88089
    A2        1.88137  -0.00002   0.00000  -0.00029  -0.00029   1.88109
    A3        1.79287  -0.00003   0.00000   0.00011   0.00011   1.79298
    A4        1.93072   0.00001   0.00000   0.00034   0.00034   1.93106
    A5        1.87788   0.00001   0.00000  -0.00031  -0.00031   1.87757
    A6        1.86683  -0.00005   0.00000  -0.00014  -0.00014   1.86669
    A7        1.87807   0.00000   0.00000   0.00013   0.00013   1.87820
    A8        1.98333   0.00006   0.00000   0.00060   0.00060   1.98392
    A9        1.92473  -0.00005   0.00000  -0.00067  -0.00067   1.92406
   A10        1.92646  -0.00005   0.00000  -0.00032  -0.00032   1.92614
   A11        1.95561   0.00003   0.00000   0.00061   0.00061   1.95621
   A12        1.81501   0.00008   0.00000   0.00041   0.00041   1.81542
   A13        1.86977   0.00001   0.00000  -0.00019  -0.00019   1.86958
   A14        1.93270   0.00000   0.00000  -0.00001  -0.00001   1.93269
   A15        1.96534  -0.00007   0.00000  -0.00049  -0.00049   1.96486
   A16        1.93307  -0.00001   0.00000  -0.00021  -0.00021   1.93286
   A17        1.96494  -0.00000   0.00000  -0.00001  -0.00001   1.96493
   A18        1.81527  -0.00001   0.00000  -0.00006  -0.00006   1.81521
   A19        1.87003  -0.00003   0.00000  -0.00042  -0.00042   1.86962
   A20        1.92599   0.00001   0.00000   0.00015   0.00015   1.92614
   A21        1.95559   0.00004   0.00000   0.00057   0.00057   1.95615
   A22        1.86654   0.00003   0.00000   0.00032   0.00032   1.86686
   A23        1.93094   0.00001   0.00000   0.00032   0.00032   1.93126
   A24        1.87764   0.00001   0.00000   0.00006   0.00006   1.87771
   A25        1.98361  -0.00001   0.00000   0.00006   0.00006   1.98366
   A26        1.92455  -0.00006   0.00000  -0.00075  -0.00075   1.92380
   A27        1.87824   0.00001   0.00000  -0.00001  -0.00001   1.87822
    D1       -0.85065  -0.00002   0.00000  -0.00021  -0.00021  -0.85086
    D2       -2.89759  -0.00004   0.00000  -0.00037  -0.00037  -2.89797
    D3        1.31772   0.00004   0.00000   0.00065   0.00065   1.31837
    D4       -2.83442   0.00002   0.00000   0.00005   0.00005  -2.83436
    D5        1.40182  -0.00001   0.00000  -0.00011  -0.00011   1.40171
    D6       -0.66605   0.00007   0.00000   0.00091   0.00091  -0.66514
    D7       -1.31775  -0.00002   0.00000  -0.00063  -0.00063  -1.31838
    D8        0.85091  -0.00000   0.00000  -0.00015  -0.00015   0.85076
    D9        2.89805   0.00003   0.00000   0.00004   0.00004   2.89809
   D10        0.66565  -0.00001   0.00000  -0.00067  -0.00067   0.66498
   D11        2.83431   0.00000   0.00000  -0.00018  -0.00019   2.83412
   D12       -1.40174   0.00003   0.00000   0.00001   0.00001  -1.40173
   D13       -1.66449  -0.00003   0.00000  -0.00047  -0.00047  -1.66497
   D14        2.53645  -0.00002   0.00000  -0.00041  -0.00041   2.53603
   D15        0.40902  -0.00001   0.00000  -0.00041  -0.00041   0.40861
   D16        0.47131  -0.00000   0.00000   0.00024   0.00024   0.47155
   D17       -1.61094   0.00000   0.00000   0.00030   0.00030  -1.61064
   D18        2.54483   0.00002   0.00000   0.00030   0.00030   2.54513
   D19        2.58157   0.00001   0.00000   0.00033   0.00033   2.58191
   D20        0.49932   0.00001   0.00000   0.00039   0.00039   0.49972
   D21       -1.62810   0.00003   0.00000   0.00039   0.00039  -1.62770
   D22       -2.06931   0.00001   0.00000  -0.00004  -0.00004  -2.06935
   D23        2.12056   0.00005   0.00000   0.00064   0.00064   2.12121
   D24       -0.00031   0.00001   0.00000   0.00000  -0.00000  -0.00031
   D25       -0.00008  -0.00001   0.00000  -0.00018  -0.00018  -0.00026
   D26       -2.09339   0.00003   0.00000   0.00050   0.00050  -2.09289
   D27        2.06893  -0.00000   0.00000  -0.00015  -0.00015   2.06878
   D28        2.09292  -0.00005   0.00000  -0.00077  -0.00077   2.09215
   D29       -0.00039  -0.00000   0.00000  -0.00009  -0.00009  -0.00047
   D30       -2.12126  -0.00004   0.00000  -0.00073  -0.00073  -2.12199
   D31       -0.40859   0.00002   0.00000   0.00048   0.00048  -0.40811
   D32       -2.54465  -0.00001   0.00000  -0.00019  -0.00019  -2.54484
   D33        1.62799   0.00002   0.00000   0.00034   0.00034   1.62833
   D34        1.66527   0.00001   0.00000   0.00027   0.00027   1.66554
   D35       -0.47079  -0.00002   0.00000  -0.00039  -0.00039  -0.47119
   D36       -2.58134   0.00001   0.00000   0.00013   0.00013  -2.58121
   D37       -2.53568   0.00001   0.00000   0.00022   0.00022  -2.53546
   D38        1.61145  -0.00002   0.00000  -0.00045  -0.00045   1.61100
   D39       -0.49910   0.00001   0.00000   0.00008   0.00008  -0.49902
         Item               Value     Threshold  Converged?
 Maximum Force            0.000803     0.000450     NO 
 RMS     Force            0.000138     0.000300     YES
 Maximum Displacement     0.001152     0.001800     YES
 RMS     Displacement     0.000380     0.001200     YES
 Predicted change in Energy=-2.436949D-06
 GradGradGradGradGradGradGradGradGradGradGradGradGradGradGradGradGradGrad

                          Input orientation:                          
 ---------------------------------------------------------------------
 Center     Atomic      Atomic             Coordinates (Angstroms)
 Number     Number       Type             X           Y           Z
 ---------------------------------------------------------------------
      1          7           0        0.843994    0.456446    0.923246
      2          1           0        1.371563    0.495278    1.798114
      3          6           0        1.643371    1.125610   -0.112538
      4          1           0        1.999907    2.096596    0.242881
      5          1           0        0.986955    1.307396   -0.971312
      6          6           0        2.778746    0.153133   -0.503883
      7          1           0        3.688696    0.383887    0.058954
      8          1           0        3.031110    0.221682   -1.566326
      9          6           0        2.230602   -1.240121   -0.112048
     10          1           0        2.866078   -1.707361    0.646827
     11          1           0        2.184912   -1.927848   -0.961806
     12          6           0        0.830275   -0.941117    0.469205
     13          1           0        0.542289   -1.609250    1.285868
     14          1           0        0.068501   -1.027331   -0.314181
 ---------------------------------------------------------------------
                    Distance matrix (angstroms):
                    1          2          3          4          5
     1  N    0.000000
     2  H    1.022365   0.000000
     3  C    1.469569   2.030219   0.000000
     4  H    2.118755   2.319005   1.093734   0.000000
     5  H    2.081803   2.911559   1.096093   1.767249   0.000000
     6  C    2.423213   2.719636   1.545295   2.222902   2.182046
     7  H    2.973986   2.899343   2.182410   2.412304   3.035411
     8  H    3.322132   3.761437   2.203725   2.802126   2.389850
     9  C    2.423397   2.719977   2.437523   3.363461   2.962235
    10  H    2.974441   2.900113   3.177636   3.922182   3.903619
    11  H    3.322100   3.761680   3.215296   4.204955   3.449928
    12  C    1.469532   2.030325   2.295846   3.262968   2.674967
    13  H    2.118873   2.319295   3.263032   4.116523   3.714757
    14  H    2.081877   2.911718   2.675076   3.714777   2.593517
                    6          7          8          9         10
     6  C    0.000000
     7  H    1.094551   0.000000
     8  H    1.094153   1.760757   0.000000
     9  C    1.547629   2.189219   2.211924   0.000000
    10  H    2.189338   2.322846   2.940492   1.094547   0.000000
    11  H    2.211971   2.940652   2.387881   1.094142   1.760767
    12  C    2.437381   3.177186   3.215457   1.545372   2.182470
    13  H    3.363175   3.921452   4.204945   2.222797   2.412053
    14  H    2.962248   3.903406   3.450356   2.181930   3.035197
                   11         12         13         14
    11  H    0.000000
    12  C    2.203741   0.000000
    13  H    2.802099   1.093745   0.000000
    14  H    2.389466   1.096096   1.767276   0.000000
 Stoichiometry    C4H9N
 Framework group  C1[X(C4H9N)]
 Deg. of freedom    36
 Full point group                 C1      NOp   1
 Largest Abelian subgroup         C1      NOp   1
 Largest concise Abelian subgroup C1      NOp   1
                         Standard orientation:                         
 ---------------------------------------------------------------------
 Center     Atomic      Atomic             Coordinates (Angstroms)
 Number     Number       Type             X           Y           Z
 ---------------------------------------------------------------------
      1          7           0        0.003135   -1.268186   -0.215808
      2          1           0        0.003420   -1.308494   -1.237378
      3          6           0        1.149043   -0.447907    0.200930
      4          1           0        2.060165   -0.769605   -0.311535
      5          1           0        1.298138   -0.608789    1.274852
      6          6           0        0.771284    1.025522   -0.071543
      7          1           0        1.157944    1.344079   -1.044711
      8          1           0        1.189868    1.702999    0.678780
      9          6           0       -0.776340    1.021882   -0.071361
     10          1           0       -1.164895    1.338847   -1.044291
     11          1           0       -1.198006    1.696996    0.679349
     12          6           0       -1.146796   -0.453543    0.200774
     13          1           0       -2.056347   -0.779384   -0.311889
     14          1           0       -1.295371   -0.615072    1.274674
 ---------------------------------------------------------------------
 Rotational constants (GHZ):           6.8849916           6.6919680           3.9130639
 Standard basis: 6-31G(d) (6D, 7F)
 There are    93 symmetry adapted cartesian basis functions of A   symmetry.
 There are    93 symmetry adapted basis functions of A   symmetry.
    93 basis functions,   176 primitive gaussians,    93 cartesian basis functions
    20 alpha electrons       20 beta electrons
       nuclear repulsion energy       190.0064964245 Hartrees.
 NAtoms=   14 NActive=   14 NUniq=   14 SFac= 1.00D+00 NAtFMM=   60 NAOKFM=F Big=F
 Integral buffers will be    131072 words long.
 Raffenetti 1 integral format.
 Two-electron integral symmetry is turned on.
 One-electron integrals computed using PRISM.
 NBasis=    93 RedAO= T EigKep=  3.15D-03  NBF=    93
 NBsUse=    93 1.00D-06 EigRej= -1.00D+00 NBFU=    93
 Initial guess from the checkpoint file:  "PRLD.scan5.neg.chk"
 B after Tr=    -0.000000    0.000000   -0.000000
         Rot=    0.999988    0.000087   -0.000020   -0.004997 Ang=   0.57 deg.
 Keep R1 ints in memory in canonical form, NReq=10436318.
 Requested convergence on RMS density matrix=1.00D-08 within 128 cycles.
 Requested convergence on MAX density matrix=1.00D-06.
 Requested convergence on             energy=1.00D-06.
 No special actions if energy rises.
 SCF Done:  E(RHF) =  -211.143210626     A.U. after    8 cycles
            NFock=  8  Conv=0.36D-08     -V/T= 2.0015
 ExpMin= 1.61D-01 ExpMax= 4.17D+03 ExpMxC= 6.27D+02 IAcc=3 IRadAn=         5 AccDes= 0.00D+00
 HarFok:  IExCor=  205 AccDes= 0.00D+00 IRadAn=         5 IDoV=-2 UseB2=F ITyADJ=14
 ICtDFT= 12500011 ScaDFX=  1.000000  1.000000  1.000000  1.000000
 Range of M.O.s used for correlation:     6    93
 NBasis=    93 NAE=    20 NBE=    20 NFC=     5 NFV=     0
 NROrb=     88 NOA=    15 NOB=    15 NVA=    73 NVB=    73
 Fully direct method using O(ONN) memory.
 JobTyp=1 Pass  1:  I=   6 to  20 NPSUse=  1 ParTrn=F ParDer=F DoDerP=T.
 Spin components of T(2) and E(2):
     alpha-alpha T2 =       0.2790763763D-01 E2=     -0.8404924826D-01
     alpha-beta  T2 =       0.1679156427D+00 E2=     -0.5160422940D+00
     beta-beta   T2 =       0.2790763763D-01 E2=     -0.8404924826D-01
 ANorm=    0.1106223720D+01
 E2 =    -0.6841407905D+00 EUMP2 =    -0.21182735141689D+03
          IDoAtm=11111111111111
          Differentiating once with respect to electric field.
                with respect to dipole field.
          Differentiating once with respect to nuclear coordinates.
 Keep R1 ints in memory in canonical form, NReq=10438744.
          There are     1 degrees of freedom in the 1st order CPHF.  IDoFFX=0 NUNeed=     1.
 LinEq1:  Iter=  0 NonCon=     1 RMS=4.26D-03 Max=4.53D-02 NDo=     1
 AX will form     1 AO Fock derivatives at one time.
 LinEq1:  Iter=  1 NonCon=     1 RMS=1.43D-03 Max=1.40D-02 NDo=     1
 LinEq1:  Iter=  2 NonCon=     1 RMS=2.90D-04 Max=3.42D-03 NDo=     1
 LinEq1:  Iter=  3 NonCon=     1 RMS=5.59D-05 Max=4.10D-04 NDo=     1
 LinEq1:  Iter=  4 NonCon=     1 RMS=1.19D-05 Max=1.55D-04 NDo=     1
 LinEq1:  Iter=  5 NonCon=     1 RMS=4.50D-06 Max=4.00D-05 NDo=     1
 LinEq1:  Iter=  6 NonCon=     1 RMS=1.05D-06 Max=1.55D-05 NDo=     1
 LinEq1:  Iter=  7 NonCon=     1 RMS=1.92D-07 Max=1.83D-06 NDo=     1
 LinEq1:  Iter=  8 NonCon=     1 RMS=6.33D-08 Max=5.79D-07 NDo=     1
 LinEq1:  Iter=  9 NonCon=     1 RMS=1.37D-08 Max=1.25D-07 NDo=     1
 LinEq1:  Iter= 10 NonCon=     1 RMS=3.65D-09 Max=2.96D-08 NDo=     1
 LinEq1:  Iter= 11 NonCon=     1 RMS=6.11D-10 Max=7.96D-09 NDo=     1
 LinEq1:  Iter= 12 NonCon=     1 RMS=1.20D-10 Max=1.50D-09 NDo=     1
 LinEq1:  Iter= 13 NonCon=     0 RMS=1.90D-11 Max=1.76D-10 NDo=     1
 Linear equations converged to 1.000D-10 1.000D-09 after    13 iterations.
 End of Minotr F.D. properties file   721 does not exist.
 End of Minotr F.D. properties file   722 does not exist.
 End of Minotr F.D. properties file   788 does not exist.
 Calling FoFJK, ICntrl=  10002127 FMM=F ISym2X=0 I1Cent= 0 IOpClX= 0 NMat=1 NMatS=1 NMatT=0.
 ***** Axes restored to original set *****
 -------------------------------------------------------------------
 Center     Atomic                   Forces (Hartrees/Bohr)
 Number     Number              X              Y              Z
 -------------------------------------------------------------------
      1        7          -0.000036687    0.000033245    0.000040128
      2        1           0.000005327   -0.000016275    0.000011918
      3        6           0.000030156   -0.000048951   -0.000053371
      4        1           0.000001231   -0.000005713    0.000012984
      5        1          -0.000012133   -0.000008027   -0.000002068
      6        6          -0.000001995    0.000060343   -0.000009008
      7        1           0.000019008   -0.000010415    0.000001301
      8        1           0.000006012   -0.000007181    0.000006193
      9        6          -0.000094954    0.000017400    0.000054060
     10        1           0.000033795    0.000004570   -0.000006959
     11        1           0.000011882    0.000006192   -0.000004066
     12        6           0.000069467   -0.000089086   -0.000074648
     13        1          -0.000010924    0.000033084    0.000014126
     14        1          -0.000020185    0.000030813    0.000009410
 -------------------------------------------------------------------
 Cartesian Forces:  Max     0.000094954 RMS     0.000034584

 GradGradGradGradGradGradGradGradGradGradGradGradGradGradGradGradGradGrad
 Berny optimization.
 Using GEDIIS/GDIIS optimizer.
 FormGI is forming the generalized inverse of G from B-inverse, IUseBI=4.
 Internal  Forces:  Max     0.000037505 RMS     0.000013227
 Search for a local minimum.
 Step number   2 out of a maximum of   90 on scan point     1 out of     7
 All quantities printed in internal units (Hartrees-Bohrs-Radians)
 Mixed Optimization -- En-DIIS/RFO-DIIS
 Swapping is turned off.
 Update second derivatives using D2CorX and points    1    2
 DE= -2.43D-06 DEPred=-2.44D-06 R= 9.98D-01
 TightC=F SS=  1.41D+00  RLast= 4.72D-03 DXNew= 5.0454D-01 1.4149D-02
 Trust test= 9.98D-01 RLast= 4.72D-03 DXMaxT set to 3.00D-01
 ITU=  1  0
     Eigenvalues ---    0.00752   0.01322   0.02317   0.02351   0.04343
     Eigenvalues ---    0.04709   0.04950   0.05387   0.05518   0.05773
     Eigenvalues ---    0.05997   0.06791   0.06895   0.08242   0.08783
     Eigenvalues ---    0.08940   0.09393   0.11012   0.11561   0.20385
     Eigenvalues ---    0.21259   0.26282   0.27015   0.27390   0.33023
     Eigenvalues ---    0.33705   0.34139   0.34226   0.34290   0.34298
     Eigenvalues ---    0.34350   0.34367   0.34376   0.34927   0.44080
     Eigenvalues --- 1000.000001000.000001000.000001000.000001000.00000
     Eigenvalues --- 1000.000001000.000001000.000001000.000001000.00000
     Eigenvalues --- 1000.000001000.000001000.000001000.000001000.00000
     Eigenvalues --- 1000.000001000.000001000.000001000.000001000.00000
     Eigenvalues --- 1000.000001000.000001000.000001000.000001000.00000
     Eigenvalues --- 1000.000001000.000001000.000001000.000001000.00000
     Eigenvalues --- 1000.000001000.000001000.000001000.000001000.00000
     Eigenvalues --- 1000.000001000.000001000.000001000.000001000.00000
     Eigenvalues --- 1000.000001000.000001000.000001000.000001000.00000
 En-DIIS/RFO-DIIS/Sim-DIIS IScMMF=       -3 using points:     2    1
 RFO step:  Lambda=-1.33911972D-07.
 DidBck=F Rises=F RFO-DIIS coefs:    0.97092    0.02908
 Iteration  1 RMS(Cart)=  0.00018981 RMS(Int)=  0.00000003
 Iteration  2 RMS(Cart)=  0.00000003 RMS(Int)=  0.00000002
 Iteration  1 RMS(Cart)=  0.00000000 RMS(Int)=  0.00000000
 Variable       Old X    -DE/DX   Delta X   Delta X   Delta X     New X
                                 (Linear)    (Quad)   (Total)
    R1        1.93199   0.00001   0.00002  -0.00001   0.00001   1.93200
    R2        2.77708   0.00002  -0.00001   0.00008   0.00007   2.77716
    R3        2.77701   0.00001  -0.00003   0.00008   0.00005   2.77706
    R4        2.06686  -0.00000   0.00007  -0.00013  -0.00007   2.06679
    R5        2.07132   0.00001  -0.00005   0.00011   0.00006   2.07138
    R6        2.92018  -0.00003   0.00000  -0.00014  -0.00013   2.92005
    R7        2.06840   0.00001   0.00001   0.00002   0.00003   2.06843
    R8        2.06765  -0.00001  -0.00003   0.00004   0.00001   2.06766
    R9        2.92459   0.00001  -0.00001   0.00006   0.00005   2.92464
   R10        2.06839   0.00001  -0.00002   0.00007   0.00005   2.06845
   R11        2.06763  -0.00000   0.00002  -0.00004  -0.00002   2.06761
   R12        2.92033  -0.00004   0.00003  -0.00018  -0.00015   2.92018
   R13        2.06688  -0.00001   0.00001  -0.00004  -0.00003   2.06685
   R14        2.07132   0.00000  -0.00001   0.00003   0.00002   2.07134
    A1        1.88089   0.00001  -0.00000   0.00012   0.00012   1.88101
    A2        1.88109  -0.00000   0.00001  -0.00011  -0.00010   1.88098
    A3        1.79298  -0.00003  -0.00000  -0.00018  -0.00018   1.79279
    A4        1.93106  -0.00002  -0.00001  -0.00011  -0.00012   1.93094
    A5        1.87757  -0.00001   0.00001  -0.00007  -0.00007   1.87750
    A6        1.86669   0.00002   0.00000   0.00005   0.00006   1.86675
    A7        1.87820   0.00001  -0.00000   0.00011   0.00011   1.87831
    A8        1.98392  -0.00001  -0.00002  -0.00002  -0.00004   1.98389
    A9        1.92406   0.00000   0.00002   0.00004   0.00006   1.92412
   A10        1.92614   0.00002   0.00001   0.00016   0.00017   1.92631
   A11        1.95621   0.00001  -0.00002   0.00013   0.00012   1.95633
   A12        1.81542  -0.00003  -0.00001  -0.00014  -0.00016   1.81527
   A13        1.86958  -0.00001   0.00001  -0.00004  -0.00003   1.86955
   A14        1.93269   0.00000   0.00000  -0.00004  -0.00004   1.93265
   A15        1.96486   0.00000   0.00001  -0.00006  -0.00004   1.96481
   A16        1.93286  -0.00002   0.00001  -0.00023  -0.00022   1.93264
   A17        1.96493  -0.00002   0.00000  -0.00014  -0.00014   1.96479
   A18        1.81521   0.00002   0.00000   0.00008   0.00008   1.81529
   A19        1.86962   0.00000   0.00001  -0.00007  -0.00006   1.86956
   A20        1.92614   0.00001  -0.00000   0.00027   0.00026   1.92640
   A21        1.95615  -0.00000  -0.00002   0.00010   0.00008   1.95624
   A22        1.86686   0.00000  -0.00001  -0.00007  -0.00008   1.86679
   A23        1.93126  -0.00003  -0.00001  -0.00029  -0.00030   1.93097
   A24        1.87771  -0.00002  -0.00000  -0.00025  -0.00025   1.87746
   A25        1.98366   0.00002  -0.00000   0.00021   0.00021   1.98388
   A26        1.92380   0.00002   0.00002   0.00027   0.00029   1.92409
   A27        1.87822  -0.00000   0.00000   0.00009   0.00009   1.87832
    D1       -0.85086  -0.00001   0.00001  -0.00041  -0.00040  -0.85126
    D2       -2.89797  -0.00000   0.00001  -0.00044  -0.00043  -2.89839
    D3        1.31837  -0.00002  -0.00002  -0.00047  -0.00049   1.31788
    D4       -2.83436   0.00000  -0.00000  -0.00025  -0.00025  -2.83462
    D5        1.40171   0.00000   0.00000  -0.00028  -0.00028   1.40144
    D6       -0.66514  -0.00001  -0.00003  -0.00031  -0.00034  -0.66548
    D7       -1.31838  -0.00000   0.00002   0.00025   0.00027  -1.31812
    D8        0.85076   0.00001   0.00000   0.00029   0.00030   0.85106
    D9        2.89809  -0.00002  -0.00000   0.00010   0.00010   2.89819
   D10        0.66498  -0.00000   0.00002   0.00026   0.00028   0.66526
   D11        2.83412   0.00001   0.00001   0.00030   0.00031   2.83443
   D12       -1.40173  -0.00002  -0.00000   0.00011   0.00011  -1.40162
   D13       -1.66497   0.00001   0.00001   0.00027   0.00028  -1.66469
   D14        2.53603   0.00000   0.00001   0.00012   0.00013   2.53617
   D15        0.40861   0.00001   0.00001   0.00021   0.00022   0.40883
   D16        0.47155   0.00000  -0.00001   0.00015   0.00014   0.47169
   D17       -1.61064  -0.00001  -0.00001   0.00000  -0.00001  -1.61064
   D18        2.54513  -0.00000  -0.00001   0.00009   0.00008   2.54521
   D19        2.58191   0.00001  -0.00001   0.00030   0.00029   2.58220
   D20        0.49972  -0.00000  -0.00001   0.00016   0.00015   0.49987
   D21       -1.62770   0.00000  -0.00001   0.00025   0.00024  -1.62747
   D22       -2.06935  -0.00002   0.00000  -0.00025  -0.00025  -2.06960
   D23        2.12121   0.00000  -0.00002   0.00010   0.00008   2.12128
   D24       -0.00031   0.00000   0.00000   0.00000   0.00000  -0.00031
   D25       -0.00026  -0.00001   0.00001  -0.00017  -0.00016  -0.00042
   D26       -2.09289   0.00001  -0.00001   0.00018   0.00016  -2.09272
   D27        2.06878   0.00001   0.00000   0.00008   0.00009   2.06887
   D28        2.09215  -0.00002   0.00002  -0.00029  -0.00027   2.09189
   D29       -0.00047   0.00001   0.00000   0.00006   0.00006  -0.00041
   D30       -2.12199   0.00000   0.00002  -0.00004  -0.00002  -2.12201
   D31       -0.40811  -0.00001  -0.00001  -0.00019  -0.00021  -0.40832
   D32       -2.54484   0.00001   0.00001   0.00008   0.00008  -2.54475
   D33        1.62833  -0.00002  -0.00001  -0.00039  -0.00040   1.62793
   D34        1.66554  -0.00001  -0.00001  -0.00028  -0.00029   1.66525
   D35       -0.47119   0.00001   0.00001  -0.00001  -0.00000  -0.47119
   D36       -2.58121  -0.00002  -0.00000  -0.00048  -0.00048  -2.58169
   D37       -2.53546  -0.00000  -0.00001  -0.00013  -0.00013  -2.53560
   D38        1.61100   0.00002   0.00001   0.00014   0.00016   1.61116
   D39       -0.49902  -0.00001  -0.00000  -0.00032  -0.00032  -0.49934
         Item               Value     Threshold  Converged?
 Maximum Force            0.000038     0.000450     YES
 RMS     Force            0.000013     0.000300     YES
 Maximum Displacement     0.000796     0.001800     YES
 RMS     Displacement     0.000190     0.001200     YES
 Predicted change in Energy=-6.696017D-08
 Optimization completed.
    -- Stationary point found.
                           ----------------------------
                           !   Optimized Parameters   !
                           ! (Angstroms and Degrees)  !
 --------------------------                            --------------------------
 ! Name  Definition              Value          Derivative Info.                !
 --------------------------------------------------------------------------------
 ! R1    R(1,2)                  1.0224         -DE/DX =    0.0                 !
 ! R2    R(1,3)                  1.4696         -DE/DX =    0.0                 !
 ! R3    R(1,12)                 1.4695         -DE/DX =    0.0                 !
 ! R4    R(3,4)                  1.0937         -DE/DX =    0.0                 !
 ! R5    R(3,5)                  1.0961         -DE/DX =    0.0                 !
 ! R6    R(3,6)                  1.5453         -DE/DX =    0.0                 !
 ! R7    R(6,7)                  1.0946         -DE/DX =    0.0                 !
 ! R8    R(6,8)                  1.0942         -DE/DX =    0.0                 !
 ! R9    R(6,9)                  1.5476         -DE/DX =    0.0                 !
 ! R10   R(9,10)                 1.0945         -DE/DX =    0.0                 !
 ! R11   R(9,11)                 1.0941         -DE/DX =    0.0                 !
 ! R12   R(9,12)                 1.5454         -DE/DX =    0.0                 !
 ! R13   R(12,13)                1.0937         -DE/DX =    0.0                 !
 ! R14   R(12,14)                1.0961         -DE/DX =    0.0                 !
 ! A1    A(2,1,3)              107.767          -DE/DX =    0.0                 !
 ! A2    A(2,1,12)             107.7783         -DE/DX =    0.0                 !
 ! A3    A(3,1,12)             102.7299         -DE/DX =    0.0                 !
 ! A4    A(1,3,4)              110.6417         -DE/DX =    0.0                 !
 ! A5    A(1,3,5)              107.5766         -DE/DX =    0.0                 !
 ! A6    A(1,3,6)              106.9537         -DE/DX =    0.0                 !
 ! A7    A(4,3,5)              107.6128         -DE/DX =    0.0                 !
 ! A8    A(4,3,6)              113.6704         -DE/DX =    0.0                 !
 ! A9    A(5,3,6)              110.2405         -DE/DX =    0.0                 !
 ! A10   A(3,6,7)              110.36           -DE/DX =    0.0                 !
 ! A11   A(3,6,8)              112.0828         -DE/DX =    0.0                 !
 ! A12   A(3,6,9)              104.016          -DE/DX =    0.0                 !
 ! A13   A(7,6,8)              107.1191         -DE/DX =    0.0                 !
 ! A14   A(7,6,9)              110.7351         -DE/DX =    0.0                 !
 ! A15   A(8,6,9)              112.5779         -DE/DX =    0.0                 !
 ! A16   A(6,9,10)             110.7447         -DE/DX =    0.0                 !
 ! A17   A(6,9,11)             112.5824         -DE/DX =    0.0                 !
 ! A18   A(6,9,12)             104.0038         -DE/DX =    0.0                 !
 ! A19   A(10,9,11)            107.1211         -DE/DX =    0.0                 !
 ! A20   A(10,9,12)            110.3595         -DE/DX =    0.0                 !
 ! A21   A(11,9,12)            112.0794         -DE/DX =    0.0                 !
 ! A22   A(1,12,9)             106.9633         -DE/DX =    0.0                 !
 ! A23   A(1,12,13)            110.6533         -DE/DX =    0.0                 !
 ! A24   A(1,12,14)            107.5846         -DE/DX =    0.0                 !
 ! A25   A(9,12,13)            113.6555         -DE/DX =    0.0                 !
 ! A26   A(9,12,14)            110.2258         -DE/DX =    0.0                 !
 ! A27   A(13,12,14)           107.6142         -DE/DX =    0.0                 !
 ! D1    D(2,1,3,4)            -48.7506         -DE/DX =    0.0                 !
 ! D2    D(2,1,3,5)           -166.0412         -DE/DX =    0.0                 !
 ! D3    D(2,1,3,6)             75.537          -DE/DX =    0.0                 !
 ! D4    D(12,1,3,4)          -162.3971         -DE/DX =    0.0                 !
 ! D5    D(12,1,3,5)            80.3122         -DE/DX =    0.0                 !
 ! D6    D(12,1,3,6)           -38.1095         -DE/DX =    0.0                 !
 ! D7    D(2,1,12,9)           -75.5377         -DE/DX =    0.0                 !
 ! D8    D(2,1,12,13)           48.745          -DE/DX =    0.0                 !
 ! D9    D(2,1,12,14)          166.0484         -DE/DX =    0.0                 !
 ! D10   D(3,1,12,9)            38.1006         -DE/DX =    0.0                 !
 ! D11   D(3,1,12,13)          162.3833         -DE/DX =    0.0                 !
 ! D12   D(3,1,12,14)          -80.3133         -DE/DX =    0.0                 !
 ! D13   D(1,3,6,7)            -95.3956         -DE/DX =    0.0                 !
 ! D14   D(1,3,6,8)            145.3039         -DE/DX =    0.0                 !
 ! D15   D(1,3,6,9)             23.4117         -DE/DX =    0.0                 !
 ! D16   D(4,3,6,7)             27.0178         -DE/DX =    0.0                 !
 ! D17   D(4,3,6,8)            -92.2826         -DE/DX =    0.0                 !
 ! D18   D(4,3,6,9)            145.8251         -DE/DX =    0.0                 !
 ! D19   D(5,3,6,7)            147.9323         -DE/DX =    0.0                 !
 ! D20   D(5,3,6,8)             28.6318         -DE/DX =    0.0                 !
 ! D21   D(5,3,6,9)            -93.2605         -DE/DX =    0.0                 !
 ! D22   D(3,6,9,10)          -118.5651         -DE/DX =    0.0                 !
 ! D23   D(3,6,9,11)           121.5362         -DE/DX =    0.0                 !
 ! D24   D(3,6,9,12)            -0.0176         -DE/DX =    0.0                 !
 ! D25   D(7,6,9,10)            -0.0149         -DE/DX =    0.0                 !
 ! D26   D(7,6,9,11)          -119.9136         -DE/DX =    0.0                 !
 ! D27   D(7,6,9,12)           118.5326         -DE/DX =    0.0                 !
 ! D28   D(8,6,9,10)           119.8715         -DE/DX =    0.0                 !
 ! D29   D(8,6,9,11)            -0.0272         -DE/DX =    0.0                 !
 ! D30   D(8,6,9,12)          -121.581          -DE/DX =    0.0                 !
 ! D31   D(6,9,12,1)           -23.3832         -DE/DX =    0.0                 !
 ! D32   D(6,9,12,13)         -145.8085         -DE/DX =    0.0                 !
 ! D33   D(6,9,12,14)           93.2963         -DE/DX =    0.0                 !
 ! D34   D(10,9,12,1)           95.4283         -DE/DX =    0.0                 !
 ! D35   D(10,9,12,13)         -26.997          -DE/DX =    0.0                 !
 ! D36   D(10,9,12,14)        -147.8922         -DE/DX =    0.0                 !
 ! D37   D(11,9,12,1)         -145.2713         -DE/DX =    0.0                 !
 ! D38   D(11,9,12,13)          92.3034         -DE/DX =    0.0                 !
 ! D39   D(11,9,12,14)         -28.5918         -DE/DX =    0.0                 !
 --------------------------------------------------------------------------------
 Iteration  1 RMS(Cart)=  0.00931249 RMS(Int)=  0.02679975
 Iteration  2 RMS(Cart)=  0.00163671 RMS(Int)=  0.02667596
 Iteration  3 RMS(Cart)=  0.00028583 RMS(Int)=  0.02666410
 Iteration  4 RMS(Cart)=  0.00004992 RMS(Int)=  0.02666232
 Iteration  5 RMS(Cart)=  0.00000872 RMS(Int)=  0.02666202
 Iteration  6 RMS(Cart)=  0.00000152 RMS(Int)=  0.02666197
 Iteration  7 RMS(Cart)=  0.00000027 RMS(Int)=  0.02666196
 Iteration  1 RMS(Cart)=  0.00932485 RMS(Int)=  0.02245372
 Iteration  2 RMS(Cart)=  0.00870216 RMS(Int)=  0.02370559
 Iteration  3 RMS(Cart)=  0.00723649 RMS(Int)=  0.02687547
 Iteration  4 RMS(Cart)=  0.00601760 RMS(Int)=  0.03053450
 Iteration  5 RMS(Cart)=  0.00500181 RMS(Int)=  0.03404912
 Iteration  6 RMS(Cart)=  0.00415477 RMS(Int)=  0.03719708
 Iteration  7 RMS(Cart)=  0.00344865 RMS(Int)=  0.03992681
 Iteration  8 RMS(Cart)=  0.00286045 RMS(Int)=  0.04225373
 Iteration  9 RMS(Cart)=  0.00237093 RMS(Int)=  0.04421763
 Iteration 10 RMS(Cart)=  0.00196395 RMS(Int)=  0.04586483
 Iteration 11 RMS(Cart)=  0.00162593 RMS(Int)=  0.04724070
 Iteration 12 RMS(Cart)=  0.00134543 RMS(Int)=  0.04838663
 Iteration 13 RMS(Cart)=  0.00111286 RMS(Int)=  0.04933908
 Iteration 14 RMS(Cart)=  0.00092016 RMS(Int)=  0.05012953
 Iteration 15 RMS(Cart)=  0.00076060 RMS(Int)=  0.05078476
 Iteration 16 RMS(Cart)=  0.00062855 RMS(Int)=  0.05132745
 Iteration 17 RMS(Cart)=  0.00051932 RMS(Int)=  0.05177660
 Iteration 18 RMS(Cart)=  0.00042899 RMS(Int)=  0.05214814
 Iteration 19 RMS(Cart)=  0.00035432 RMS(Int)=  0.05245535
 Iteration 20 RMS(Cart)=  0.00029261 RMS(Int)=  0.05270929
 Iteration 21 RMS(Cart)=  0.00024162 RMS(Int)=  0.05291912
 Iteration 22 RMS(Cart)=  0.00019950 RMS(Int)=  0.05309248
 Iteration 23 RMS(Cart)=  0.00016472 RMS(Int)=  0.05323568
 Iteration 24 RMS(Cart)=  0.00013598 RMS(Int)=  0.05335395
 Iteration 25 RMS(Cart)=  0.00011226 RMS(Int)=  0.05345161
 Iteration 26 RMS(Cart)=  0.00009267 RMS(Int)=  0.05353225
 Iteration 27 RMS(Cart)=  0.00007650 RMS(Int)=  0.05359883
 Iteration 28 RMS(Cart)=  0.00006314 RMS(Int)=  0.05365380
 Iteration 29 RMS(Cart)=  0.00005212 RMS(Int)=  0.05369918
 Iteration 30 RMS(Cart)=  0.00004302 RMS(Int)=  0.05373664
 Iteration 31 RMS(Cart)=  0.00003551 RMS(Int)=  0.05376757
 Iteration 32 RMS(Cart)=  0.00002931 RMS(Int)=  0.05379309
 Iteration 33 RMS(Cart)=  0.00002419 RMS(Int)=  0.05381416
 Iteration 34 RMS(Cart)=  0.00001997 RMS(Int)=  0.05383156
 Iteration 35 RMS(Cart)=  0.00001648 RMS(Int)=  0.05384591
 Iteration 36 RMS(Cart)=  0.00001360 RMS(Int)=  0.05385776
 Iteration 37 RMS(Cart)=  0.00001123 RMS(Int)=  0.05386754
 Iteration 38 RMS(Cart)=  0.00000927 RMS(Int)=  0.05387561
 Iteration 39 RMS(Cart)=  0.00000765 RMS(Int)=  0.05388227
 Iteration 40 RMS(Cart)=  0.00000631 RMS(Int)=  0.05388777
 Iteration 41 RMS(Cart)=  0.00000521 RMS(Int)=  0.05389231
 Iteration 42 RMS(Cart)=  0.00000430 RMS(Int)=  0.05389606
 Iteration 43 RMS(Cart)=  0.00000355 RMS(Int)=  0.05389915
 Iteration 44 RMS(Cart)=  0.00000293 RMS(Int)=  0.05390170
 Iteration 45 RMS(Cart)=  0.00000242 RMS(Int)=  0.05390381
 Iteration 46 RMS(Cart)=  0.00000200 RMS(Int)=  0.05390555
 Iteration 47 RMS(Cart)=  0.00000165 RMS(Int)=  0.05390698
 Iteration 48 RMS(Cart)=  0.00000136 RMS(Int)=  0.05390817
 Iteration 49 RMS(Cart)=  0.00000112 RMS(Int)=  0.05390914
 Iteration 50 RMS(Cart)=  0.00000093 RMS(Int)=  0.05390995
 GradGradGradGradGradGradGradGradGradGradGradGradGradGradGradGradGradGrad

                          Input orientation:                          
 ---------------------------------------------------------------------
 Center     Atomic      Atomic             Coordinates (Angstroms)
 Number     Number       Type             X           Y           Z
 ---------------------------------------------------------------------
      1          7           0        0.846500    0.432731    0.928029
      2          1           0        1.404404    0.537858    1.778510
      3          6           0        1.617262    1.126324   -0.177473
      4          1           0        1.930342    2.109006    0.186719
      5          1           0        1.015260    1.296142   -1.077788
      6          6           0        2.795559    0.156097   -0.416061
      7          1           0        3.696145    0.358933    0.172135
      8          1           0        3.068554    0.248335   -1.471625
      9          6           0        2.188980   -1.248340   -0.187448
     10          1           0        2.811290   -1.739527    0.567279
     11          1           0        2.150866   -1.910125   -1.057954
     12          6           0        0.863672   -0.946369    0.524089
     13          1           0        0.620133   -1.641730    1.332535
     14          1           0        0.058032   -0.992334   -0.217947
 ---------------------------------------------------------------------
                    Distance matrix (angstroms):
                    1          2          3          4          5
     1  N    0.000000
     2  H    1.022559   0.000000
     3  C    1.515678   2.053648   0.000000
     4  H    2.129354   2.297589   1.093764   0.000000
     5  H    2.190264   2.980749   1.096272   1.759858   0.000000
     6  C    2.383681   2.626251   1.544878   2.219414   2.215186
     7  H    2.949118   2.804377   2.243405   2.486168   3.102872
     8  H    3.275647   3.662867   2.133528   2.740024   2.338595
     9  C    2.423333   2.769667   2.442538   3.388018   2.940189
    10  H    2.951144   2.938178   3.192720   3.966372   3.891948
    11  H    3.336836   3.820387   3.206244   4.213224   3.401491
    12  C    1.437143   2.017149   2.314334   3.253754   2.760044
    13  H    2.125619   2.358936   3.307041   4.134920   3.820586
    14  H    1.991420   2.853077   2.630884   3.645217   2.625401
                    6          7          8          9         10
     6  C    0.000000
     7  H    1.094610   0.000000
     8  H    1.094190   1.762966   0.000000
     9  C    1.546817   2.232526   2.159351   0.000000
    10  H    2.135555   2.311416   2.859180   1.094600   0.000000
    11  H    2.257638   3.008261   2.381644   1.094163   1.762569
    12  C    2.414849   3.138564   3.204949   1.534247   2.103374
    13  H    3.319977   3.848511   4.174977   2.219547   2.323006
    14  H    2.975264   3.900507   3.489156   2.146488   2.958938
                   11         12         13         14
    11  H    0.000000
    12  C    2.255782   0.000000
    13  H    2.851249   1.093812   0.000000
    14  H    2.434729   1.096261   1.772475   0.000000
 Stoichiometry    C4H9N
 Framework group  C1[X(C4H9N)]
 Deg. of freedom    36
 Full point group                 C1      NOp   1
 Largest Abelian subgroup         C1      NOp   1
 Largest concise Abelian subgroup C1      NOp   1
                         Standard orientation:                         
 ---------------------------------------------------------------------
 Center     Atomic      Atomic             Coordinates (Angstroms)
 Number     Number       Type             X           Y           Z
 ---------------------------------------------------------------------
      1          7           0        0.121329   -1.253525   -0.216473
      2          1           0        0.190750   -1.283752   -1.236225
      3          6           0        1.205448   -0.306545    0.258073
      4          1           0        2.138566   -0.572364   -0.246854
      5          1           0        1.393979   -0.376975    1.335712
      6          6           0        0.648576    1.070572   -0.166297
      7          1           0        0.954031    1.413673   -1.159851
      8          1           0        1.025136    1.797906    0.559264
      9          6           0       -0.881489    0.939935    0.019390
     10          1           0       -1.337585    1.207968   -0.938881
     11          1           0       -1.335468    1.576648    0.784696
     12          6           0       -1.090829   -0.574294    0.150539
     13          1           0       -1.977197   -0.951036   -0.367961
     14          1           0       -1.191747   -0.815408    1.215183
 ---------------------------------------------------------------------
 Rotational constants (GHZ):           6.8333291           6.7584844           3.9421435
 Standard basis: 6-31G(d) (6D, 7F)
 There are    93 symmetry adapted cartesian basis functions of A   symmetry.
 There are    93 symmetry adapted basis functions of A   symmetry.
    93 basis functions,   176 primitive gaussians,    93 cartesian basis functions
    20 alpha electrons       20 beta electrons
       nuclear repulsion energy       190.2039828999 Hartrees.
 NAtoms=   14 NActive=   14 NUniq=   14 SFac= 1.00D+00 NAtFMM=   60 NAOKFM=F Big=F
 Integral buffers will be    131072 words long.
 Raffenetti 1 integral format.
 Two-electron integral symmetry is turned on.
 One-electron integrals computed using PRISM.
 NBasis=    93 RedAO= T EigKep=  3.03D-03  NBF=    93
 NBsUse=    93 1.00D-06 EigRej= -1.00D+00 NBFU=    93
 Initial guess from the checkpoint file:  "PRLD.scan5.neg.chk"
 B after Tr=     0.000000    0.000000   -0.000000
         Rot=    0.998562    0.001589   -0.004615   -0.053394 Ang=   6.15 deg.
 Keep R1 ints in memory in canonical form, NReq=10436257.
 Requested convergence on RMS density matrix=1.00D-08 within 128 cycles.
 Requested convergence on MAX density matrix=1.00D-06.
 Requested convergence on             energy=1.00D-06.
 No special actions if energy rises.
 SCF Done:  E(RHF) =  -211.131043946     A.U. after   11 cycles
            NFock= 11  Conv=0.57D-08     -V/T= 2.0014
 ExpMin= 1.61D-01 ExpMax= 4.17D+03 ExpMxC= 6.27D+02 IAcc=3 IRadAn=         5 AccDes= 0.00D+00
 HarFok:  IExCor=  205 AccDes= 0.00D+00 IRadAn=         5 IDoV=-2 UseB2=F ITyADJ=14
 ICtDFT= 12500011 ScaDFX=  1.000000  1.000000  1.000000  1.000000
 Range of M.O.s used for correlation:     6    93
 NBasis=    93 NAE=    20 NBE=    20 NFC=     5 NFV=     0
 NROrb=     88 NOA=    15 NOB=    15 NVA=    73 NVB=    73
 Fully direct method using O(ONN) memory.
 JobTyp=1 Pass  1:  I=   6 to  20 NPSUse=  1 ParTrn=F ParDer=F DoDerP=T.
 Spin components of T(2) and E(2):
     alpha-alpha T2 =       0.2800715869D-01 E2=     -0.8424533279D-01
     alpha-beta  T2 =       0.1685067889D+00 E2=     -0.5169372408D+00
     beta-beta   T2 =       0.2800715869D-01 E2=     -0.8424533279D-01
 ANorm=    0.1106580818D+01
 E2 =    -0.6854279064D+00 EUMP2 =    -0.21181647185270D+03
          IDoAtm=11111111111111
          Differentiating once with respect to electric field.
                with respect to dipole field.
          Differentiating once with respect to nuclear coordinates.
 Keep R1 ints in memory in canonical form, NReq=10438743.
          There are     1 degrees of freedom in the 1st order CPHF.  IDoFFX=0 NUNeed=     1.
 LinEq1:  Iter=  0 NonCon=     1 RMS=4.27D-03 Max=3.73D-02 NDo=     1
 AX will form     1 AO Fock derivatives at one time.
 LinEq1:  Iter=  1 NonCon=     1 RMS=1.43D-03 Max=1.13D-02 NDo=     1
 LinEq1:  Iter=  2 NonCon=     1 RMS=2.92D-04 Max=2.79D-03 NDo=     1
 LinEq1:  Iter=  3 NonCon=     1 RMS=5.63D-05 Max=4.59D-04 NDo=     1
 LinEq1:  Iter=  4 NonCon=     1 RMS=1.17D-05 Max=1.42D-04 NDo=     1
 LinEq1:  Iter=  5 NonCon=     1 RMS=4.10D-06 Max=3.22D-05 NDo=     1
 LinEq1:  Iter=  6 NonCon=     1 RMS=1.07D-06 Max=1.55D-05 NDo=     1
 LinEq1:  Iter=  7 NonCon=     1 RMS=2.41D-07 Max=1.89D-06 NDo=     1
 LinEq1:  Iter=  8 NonCon=     1 RMS=8.18D-08 Max=6.95D-07 NDo=     1
 LinEq1:  Iter=  9 NonCon=     1 RMS=1.59D-08 Max=1.28D-07 NDo=     1
 LinEq1:  Iter= 10 NonCon=     1 RMS=4.13D-09 Max=2.17D-08 NDo=     1
 LinEq1:  Iter= 11 NonCon=     1 RMS=7.74D-10 Max=7.84D-09 NDo=     1
 LinEq1:  Iter= 12 NonCon=     1 RMS=2.20D-10 Max=1.92D-09 NDo=     1
 LinEq1:  Iter= 13 NonCon=     0 RMS=6.62D-11 Max=4.47D-10 NDo=     1
 Linear equations converged to 1.000D-10 1.000D-09 after    13 iterations.
 End of Minotr F.D. properties file   721 does not exist.
 End of Minotr F.D. properties file   722 does not exist.
 End of Minotr F.D. properties file   788 does not exist.
 Calling FoFJK, ICntrl=  10002127 FMM=F ISym2X=0 I1Cent= 0 IOpClX= 0 NMat=1 NMatS=1 NMatT=0.
 ***** Axes restored to original set *****
 -------------------------------------------------------------------
 Center     Atomic                   Forces (Hartrees/Bohr)
 Number     Number              X              Y              Z
 -------------------------------------------------------------------
      1        7           0.004194706    0.028919052   -0.004782817
      2        1           0.001112444    0.002259623   -0.001034959
      3        6           0.008322480   -0.011050973    0.037022588
      4        1           0.000410656    0.000679149   -0.000685545
      5        1          -0.003845351   -0.007843818    0.003872689
      6        6          -0.009875079    0.002032095   -0.039312858
      7        1          -0.005873571    0.001046184    0.004133210
      8        1           0.009292512    0.000228646   -0.000889115
      9        6           0.020529576    0.002902789    0.031097861
     10        1           0.004857778   -0.006611892   -0.004566466
     11        1          -0.004444927    0.005294123   -0.000831013
     12        6          -0.022040999   -0.011496006   -0.025859997
     13        1           0.000606507    0.002831016    0.001359132
     14        1          -0.003246731   -0.009189986    0.000477289
 -------------------------------------------------------------------
 Cartesian Forces:  Max     0.039312858 RMS     0.013139773

 GradGradGradGradGradGradGradGradGradGradGradGradGradGradGradGradGradGrad
 Berny optimization.
 FormGI is forming the generalized inverse of G from B-inverse, IUseBI=4.
 Internal  Forces:  Max     0.020555507 RMS     0.005616709
 Search for a local minimum.
 Step number   1 out of a maximum of   90 on scan point     2 out of     7
 All quantities printed in internal units (Hartrees-Bohrs-Radians)
 Mixed Optimization -- RFO/linear search
 Second derivative matrix not updated -- first step.
 ITU=  0
     Eigenvalues ---    0.00756   0.01287   0.02274   0.02320   0.04069
     Eigenvalues ---    0.04672   0.05201   0.05314   0.05631   0.05723
     Eigenvalues ---    0.06047   0.06763   0.06940   0.08241   0.08481
     Eigenvalues ---    0.09210   0.09431   0.10940   0.11729   0.20360
     Eigenvalues ---    0.20905   0.26258   0.26924   0.27153   0.33006
     Eigenvalues ---    0.33766   0.34140   0.34226   0.34290   0.34299
     Eigenvalues ---    0.34351   0.34367   0.34370   0.34902   0.44080
     Eigenvalues --- 1000.000001000.000001000.000001000.000001000.00000
     Eigenvalues --- 1000.000001000.000001000.000001000.000001000.00000
     Eigenvalues --- 1000.000001000.000001000.000001000.000001000.00000
     Eigenvalues --- 1000.000001000.000001000.000001000.000001000.00000
     Eigenvalues --- 1000.000001000.000001000.000001000.000001000.00000
     Eigenvalues --- 1000.000001000.000001000.000001000.000001000.00000
     Eigenvalues --- 1000.000001000.000001000.000001000.000001000.00000
     Eigenvalues --- 1000.000001000.000001000.000001000.000001000.00000
     Eigenvalues --- 1000.000001000.000001000.000001000.000001000.00000
 RFO step:  Lambda=-1.19545117D-02 EMin= 7.56378915D-03
[...]
           A26        110.22585 110.13954 110.60976 112.89117 114.67782
           A27        107.61423 107.35087 107.16563 107.73580 108.65939
           D1         -48.75056 -50.79855 -45.95034 -11.67532 -15.88391
           D2        -166.04123-168.61895-164.03612-130.12133-135.36896
           D3          75.53703  73.20036  78.02690 111.53090 106.65083
           D4        -162.39712-164.59666-160.32390-132.28286-136.14623
           D5          80.31220  77.58295  81.59031 109.27113 104.36872
           D6         -38.10954 -40.59775 -36.34667  -9.07664 -13.61149
           D7         -75.53773 -82.88734 -97.32750-140.01303-142.77757
           D8          48.74499  41.32608  25.39840 -21.67899 -25.20534
           D9         166.04841 158.18978 142.58031  98.84944  96.84760
           D10         38.10058  30.50999  16.47137 -19.43996 -23.29974
           D11        162.38330 154.72340 139.19727  98.89408  94.27250
           D12        -80.31328 -88.41289-103.62083-140.57749-143.67456
           D13        -95.39558 -82.92373 -75.46290 -82.57911 -71.47062
           D14        145.30393 157.27682 163.55120 155.68948 164.83955
           D15         23.41168  34.68671  41.62404  33.69322  44.63076
           D16         27.01785  38.95416  45.79529  39.18177  47.60995
           D17        -92.28265 -80.84529 -75.19061 -82.54964 -76.07987
           D18        145.82511 156.56460 162.88223 155.45410 163.71133
           D19        147.93226 160.55312 167.56796 159.47607 171.20465
           D20         28.63176  40.75367  46.58206  37.74466  47.51483
           D21        -93.26048 -81.83645 -75.34510 -84.25160 -72.69397
           D22       -118.56512-135.84054-152.26319-166.31953-179.52910
           D23        121.53617 104.57024  87.97691  71.66844  56.45095
           D24         -0.01762 -15.01803 -30.01679 -45.01723 -60.01736
           D25         -0.01490 -19.10105 -36.17457 -49.45487 -62.79199
           D26       -119.91360-138.69028-155.93447-171.46690 173.18806
           D27        118.53260 101.72145  86.07183  71.84744  56.71974
           D28        119.87152 101.30283  85.15432  72.20665  60.73180
           D29         -0.02718 -18.28639 -34.60558 -49.80538 -63.28815
           D30       -121.58098-137.87466-152.59928-166.49104-179.75647
           D31        -23.38316  -9.02214   9.26499  40.21663  50.96215
           D32       -145.80848-131.25376-111.80327 -80.20979 -69.31892
           D33         93.29635 108.43238 128.41701 159.69976 167.41855
           D34         95.42833 111.59224 131.72696 162.43267 171.47262
           D35        -26.99699 -10.63939  10.65871  42.00626  51.19156
           D36       -147.89217-130.95325-109.12101 -78.08420 -72.07097
           D37       -145.27125-128.96353-108.47103 -76.39525 -65.51706
           D38         92.30343 108.80484 130.46071 163.17834 174.20188
           D39        -28.59175 -11.50902  10.68099  43.08788  50.93935
                           6         7
     Eigenvalues --    -0.78375  -0.72946
           R1           1.02060   1.02688
           R2           1.57193   1.68569
           R3           1.56358   1.67491
           R4           1.09516   1.09488
           R5           1.08951   1.08488
           R6           1.50325   1.48328
           R7           1.08809   1.08382
           R8           1.10007   1.10468
           R9           1.53894   1.55199
           R10          1.09825   1.10149
           R11          1.08744   1.08313
           R12          1.50601   1.48660
           R13          1.09318   1.08819
           R14          1.09352   1.09224
           A1         107.49927 103.49553
           A2         110.75740 109.27951
           A3         107.45769 106.13113
           A4         108.48008 106.00593
           A5         111.23725 111.44348
           A6          95.50580  88.97329
           A7         109.53788 111.27703
           A8         117.08953 118.88874
           A9         114.06481 117.19263
           A10        112.93300 113.50791
           A11        114.22831 114.63983
           A12         93.70783  92.32379
           A13        108.67287 108.10279
           A14        113.14580 115.23754
           A15        113.67727 112.59297
           A16        113.89159 112.93450
           A17        113.35939 115.27200
           A18         94.19045  92.49840
           A19        108.99934 108.81233
           A20        113.67641 114.43930
           A21        112.20798 112.30163
           A22         92.94254  86.49755
           A23        115.99447 117.04331
           A24        107.19852 103.78845
           A25        113.13382 116.19020
           A26        116.72847 118.61410
           A27        109.96476 111.77739
           D1         -18.92238 -24.91963
           D2        -139.46540-146.13507
           D3         102.04710  94.91737
           D4        -138.17794-139.93629
           D5         101.27905  98.84827
           D6         -17.20846 -20.09930
           D7        -143.38570-139.06410
           D8         -25.82165 -21.33993
           D9          97.44797 102.31443
           D10        -26.23783 -28.05377
           D11         91.32622  89.67040
           D12       -145.40416-146.67523
           D13        -64.59575 -61.69293
           D14        170.54109 173.39612
           D15         52.47692  57.18830
           D16         49.41995  46.07057
           D17        -75.44321 -78.84038
           D18        166.49262 164.95179
           D19        179.19847-175.38798
           D20         54.33531  59.70107
           D21        -63.72886 -56.50675
           D22        166.76437 152.06981
           D23         41.37199  26.12786
           D24        -75.01703 -90.01716
           D25        -76.34071 -90.51354
           D26        158.26692 143.54451
           D27         41.87790  27.39949
           D28         48.24540  34.11176
           D29        -77.14698 -91.83018
           D30        166.46401 152.02480
           D31         58.62560  62.98227
           D32        -61.32140 -55.54176
           D33        169.56493 166.78709
           D34        177.02029 179.61477
           D35         57.07329  61.09074
           D36        -72.04038 -76.58042
           D37        -58.71809 -55.68792
           D38       -178.66508-174.21196
           D39         52.22124  48.11689
 GradGradGradGradGradGradGradGradGradGradGradGradGradGradGradGradGradGrad

                          Input orientation:                          
 ---------------------------------------------------------------------
 Center     Atomic      Atomic             Coordinates (Angstroms)
 Number     Number       Type             X           Y           Z
 ---------------------------------------------------------------------
      1          7           0        0.657075    0.381698    0.505150
      2          1           0        0.708612    0.934443    1.369038
      3          6           0        1.809751    1.101830   -0.491990
      4          1           0        1.912988    2.132887   -0.138390
      5          1           0        1.507855    1.071217   -1.533572
      6          6           0        2.794100    0.087823   -0.041482
      7          1           0        2.993418    0.122003    1.023300
      8          1           0        3.762042    0.117607   -0.573014
      9          6           0        1.893184   -1.086373   -0.508701
     10          1           0        2.467550   -1.985645   -0.782003
     11          1           0        1.208027   -0.851423   -1.314008
     12          6           0        1.208402   -1.170583    0.808105
     13          1           0        1.850913   -1.306897    1.675720
     14          1           0        0.293083   -1.761587    0.884846
 ---------------------------------------------------------------------
                    Distance matrix (angstroms):
                    1          2          3          4          5
     1  N    0.000000
     2  H    1.026882   0.000000
     3  C    1.685686   2.168859   0.000000
     4  H    2.249027   2.271372   1.094883   0.000000
     5  H    2.314227   3.013742   1.084883   1.799391   0.000000
     6  C    2.225319   2.656237   1.483277   2.228909   2.201777
     7  H    2.407160   2.449476   2.158062   2.561349   3.105720
     8  H    3.297423   3.709747   2.187853   2.769342   2.629335
     9  C    2.170504   3.002134   2.189856   3.240549   2.419510
    10  H    3.246366   4.030850   3.170064   4.205244   3.290938
    11  H    2.265716   3.261513   2.202949   3.284076   1.958226
    12  C    1.674909   2.235077   2.686211   3.507878   3.255578
    13  H    2.376307   2.534267   3.240776   3.889340   4.009073
    14  H    2.206883   2.770503   3.520670   4.340280   3.917804
                    6          7          8          9         10
     6  C    0.000000
     7  H    1.083816   0.000000
     8  H    1.104683   1.771728   0.000000
     9  C    1.551993   2.240026   2.224036   0.000000
    10  H    2.225820   2.824507   2.478518   1.101490   0.000000
    11  H    2.239897   3.098095   2.830386   1.083126   1.776482
    12  C    2.195410   2.214356   3.176161   1.486605   2.185914
    13  H    2.404918   1.942351   3.276954   2.195931   2.623232
    14  H    3.245534   3.295283   4.205996   2.226703   2.748980
                   11         12         13         14
    11  H    0.000000
    12  C    2.145979   0.000000
    13  H    3.091801   1.088191   0.000000
    14  H    2.549604   1.092238   1.805287   0.000000
 Stoichiometry    C4H9N
 Framework group  C1[X(C4H9N)]
 Deg. of freedom    36
 Full point group                 C1      NOp   1
 Largest Abelian subgroup         C1      NOp   1
 Largest concise Abelian subgroup C1      NOp   1
                         Standard orientation:                         
 ---------------------------------------------------------------------
 Center     Atomic      Atomic             Coordinates (Angstroms)
 Number     Number       Type             X           Y           Z
 ---------------------------------------------------------------------
      1          7           0       -0.006848   -1.224975    0.130357
      2          1           0        0.192812   -1.809440   -0.690023
      3          6           0        1.327935   -0.199096    0.216749
      4          1           0        2.147639   -0.727659   -0.280721
      5          1           0        1.579457    0.038765    1.244917
      6          6           0        0.562840    0.816971   -0.546369
      7          1           0        0.275705    0.487069   -1.538021
      8          1           0        1.065772    1.795820   -0.642485
      9          6           0       -0.581237    0.834859    0.502177
     10          1           0       -1.110619    1.799916    0.543415
     11          1           0       -0.292099    0.551879    1.506907
     12          6           0       -1.325958   -0.245826   -0.196040
     13          1           0       -1.562409   -0.067075   -1.243082
     14          1           0       -2.149807   -0.735899    0.327490
 ---------------------------------------------------------------------
 Rotational constants (GHZ):           7.5387448           6.0179600           4.3180385

 **********************************************************************

            Population analysis using the SCF density.

 **********************************************************************

 Orbital symmetries:
       Occupied  (A) (A) (A) (A) (A) (A) (A) (A) (A) (A) (A) (A)
                 (A) (A) (A) (A) (A) (A) (A) (A)
       Virtual   (A) (A) (A) (A) (A) (A) (A) (A) (A) (A) (A) (A)
                 (A) (A) (A) (A) (A) (A) (A) (A) (A) (A) (A) (A)
                 (A) (A) (A) (A) (A) (A) (A) (A) (A) (A) (A) (A)
                 (A) (A) (A) (A) (A) (A) (A) (A) (A) (A) (A) (A)
                 (A) (A) (A) (A) (A) (A) (A) (A) (A) (A) (A) (A)
                 (A) (A) (A) (A) (A) (A) (A) (A) (A) (A) (A) (A)
                 (A)
 The electronic state is 1-A.
 Alpha  occ. eigenvalues --  -15.54454 -11.25671 -11.25334 -11.22287 -11.21906
 Alpha  occ. eigenvalues --   -1.17946  -0.99861  -0.96942  -0.81618  -0.79897
 Alpha  occ. eigenvalues --   -0.66318  -0.64126  -0.59352  -0.55210  -0.53371
 Alpha  occ. eigenvalues --   -0.48982  -0.47326  -0.43786  -0.43581  -0.35465
 Alpha virt. eigenvalues --    0.23157   0.24015   0.25791   0.27779   0.30265
 Alpha virt. eigenvalues --    0.30980   0.32585   0.34476   0.35446   0.36327
 Alpha virt. eigenvalues --    0.37625   0.39307   0.45090   0.45976   0.70888
 Alpha virt. eigenvalues --    0.72357   0.78900   0.79412   0.83581   0.84359
 Alpha virt. eigenvalues --    0.90178   0.92932   0.93121   0.96699   0.99367
 Alpha virt. eigenvalues --    1.08301   1.10930   1.11940   1.12468   1.14601
 Alpha virt. eigenvalues --    1.15666   1.20746   1.21624   1.22046   1.22441
 Alpha virt. eigenvalues --    1.24120   1.29301   1.34353   1.44578   1.52588
 Alpha virt. eigenvalues --    1.58433   1.67358   1.73181   1.78819   1.92317
 Alpha virt. eigenvalues --    2.01737   2.03427   2.09925   2.13038   2.26109
 Alpha virt. eigenvalues --    2.30519   2.31731   2.33835   2.43143   2.48536
 Alpha virt. eigenvalues --    2.49059   2.54063   2.59019   2.61156   2.67945
 Alpha virt. eigenvalues --    2.71550   2.77626   2.82041   2.85250   2.95777
 Alpha virt. eigenvalues --    2.99148   3.02587   3.16613   4.23728   4.66685
 Alpha virt. eigenvalues --    4.68981   4.89703   4.98239
          Condensed to atoms (all electrons):
               1          2          3          4          5          6
     1  N    7.278902   0.292438   0.267928  -0.028067  -0.023935  -0.114054
     2  H    0.292438   0.438579  -0.032321  -0.001699   0.002353   0.002932
     3  C    0.267928  -0.032321   5.021412   0.393008   0.405595   0.329927
     4  H   -0.028067  -0.001699   0.393008   0.525926  -0.029592  -0.034908
     5  H   -0.023935   0.002353   0.405595  -0.029592   0.510915  -0.038083
     6  C   -0.114054   0.002932   0.329927  -0.034908  -0.038083   5.227966
     7  H   -0.011233   0.001969  -0.031298  -0.001548   0.002711   0.418343
     8  H    0.009815  -0.000244  -0.037270  -0.001414   0.001148   0.379381
     9  C   -0.138770   0.005576  -0.097603   0.009708  -0.017818   0.328965
    10  H    0.008189  -0.000338   0.005668  -0.000150   0.000274  -0.034002
    11  H   -0.015416   0.000710  -0.010113   0.000974  -0.005050  -0.035581
    12  C    0.268843  -0.026316  -0.050594   0.001341   0.003103  -0.102347
    13  H   -0.024844  -0.002987   0.003971  -0.000010  -0.000189  -0.020704
    14  H   -0.031330   0.001621   0.001243   0.000013  -0.000005   0.008828
               7          8          9         10         11         12
     1  N   -0.011233   0.009815  -0.138770   0.008189  -0.015416   0.268843
     2  H    0.001969  -0.000244   0.005576  -0.000338   0.000710  -0.026316
     3  C   -0.031298  -0.037270  -0.097603   0.005668  -0.010113  -0.050594
     4  H   -0.001548  -0.001414   0.009708  -0.000150   0.000974   0.001341
     5  H    0.002711   0.001148  -0.017818   0.000274  -0.005050   0.003103
     6  C    0.418343   0.379381   0.328965  -0.034002  -0.035581  -0.102347
     7  H    0.516788  -0.029770  -0.036514   0.000802   0.002131  -0.011676
     8  H   -0.029770   0.564881  -0.039330  -0.001359  -0.000020   0.006364
     9  C   -0.036514  -0.039330   5.252176   0.388094   0.420611   0.322761
    10  H    0.000802  -0.001359   0.388094   0.543242  -0.028552  -0.035356
    11  H    0.002131  -0.000020   0.420611  -0.028552   0.488189  -0.030854
    12  C   -0.011676   0.006364   0.322761  -0.035356  -0.030854   5.025961
    13  H   -0.004399  -0.000196  -0.034045  -0.000238   0.003125   0.395848
    14  H    0.000846  -0.000116  -0.030252  -0.000948  -0.001627   0.397428
              13         14
     1  N   -0.024844  -0.031330
     2  H   -0.002987   0.001621
     3  C    0.003971   0.001243
     4  H   -0.000010   0.000013
     5  H   -0.000189  -0.000005
     6  C   -0.020704   0.008828
     7  H   -0.004399   0.000846
     8  H   -0.000196  -0.000116
     9  C   -0.034045  -0.030252
    10  H   -0.000238  -0.000948
    11  H    0.003125  -0.001627
    12  C    0.395848   0.397428
    13  H    0.546327  -0.031565
    14  H   -0.031565   0.502873
 Mulliken charges:
               1
     1  N   -0.738465
     2  H    0.317725
     3  C   -0.169551
     4  H    0.166418
     5  H    0.188573
     6  C   -0.316662
     7  H    0.182848
     8  H    0.148132
     9  C   -0.333558
    10  H    0.154674
    11  H    0.211473
    12  C   -0.164503
    13  H    0.169906
    14  H    0.182992
 Sum of Mulliken charges =  -0.00000
 Mulliken charges with hydrogens summed into heavy atoms:
               1
     1  N   -0.420740
     3  C    0.185439
     6  C    0.014317
     9  C    0.032589
    12  C    0.188395
 Electronic spatial extent (au):  <R**2>=            378.2955
 Charge=             -0.0000 electrons
 Dipole moment (field-independent basis, Debye):
    X=              0.2991    Y=              1.1720    Z=             -1.2769  Tot=              1.7589
 Quadrupole moment (field-independent basis, Debye-Ang):
   XX=            -30.9090   YY=            -35.9701   ZZ=            -31.3586
   XY=             -0.5852   XZ=              0.8282   YZ=              3.0041
 Traceless Quadrupole moment (field-independent basis, Debye-Ang):
   XX=              1.8369   YY=             -3.2242   ZZ=              1.3873
   XY=             -0.5852   XZ=              0.8282   YZ=              3.0041
 Octapole moment (field-independent basis, Debye-Ang**2):
  XXX=              0.0316  YYY=              1.2847  ZZZ=             -0.8675  XYY=              1.0736
  XXY=             -2.6426  XXZ=              0.3118  XZZ=              0.3011  YZZ=             -0.1128
  YYZ=             -5.3924  XYZ=              0.9140
 Hexadecapole moment (field-independent basis, Debye-Ang**3):
 XXXX=           -230.8468 YYYY=           -187.0310 ZZZZ=            -86.1440 XXXY=             -0.1536
 XXXZ=              0.5988 YYYX=             -2.6446 YYYZ=             10.9457 ZZZX=              3.3528
 ZZZY=              3.5925 XXYY=            -68.6442 XXZZ=            -53.0076 YYZZ=            -47.1237
 XXYZ=              0.5259 YYXZ=             -0.7204 ZZXY=             -0.3478
 N-N= 1.904394245205D+02 E-N=-8.727595446481D+02  KE= 2.106938428197D+02
 1\1\GINC-C406-122\Scan\RMP2-FC\6-31G(d)\C4H9N1\TG455515\02-Apr-2021\0\
 \# opt=modredundant MP2/6-31g(d) Geom=PrintInputOrient\\PRLD Dihedral/
 Improper Scan\\0,1\N,0.6570754433,0.3816977818,0.5051495499\H,0.708612
 165,0.9344427567,1.3690384351\C,1.8097508452,1.1018299433,-0.491989602
 6\H,1.9129875855,2.1328871215,-0.1383902342\H,1.5078549791,1.071216629
 7,-1.5335715065\C,2.7941003303,0.0878233424,-0.0414817873\H,2.99341799
 71,0.1220034881,1.0233000486\H,3.7620418912,0.1176068514,-0.5730138116
 \C,1.893183621,-1.0863727542,-0.5087008475\H,2.4675499449,-1.985644643
 9,-0.7820030234\H,1.2080265346,-0.8514228131,-1.3140080402\C,1.2084018
 308,-1.1705831407,0.8081046686\H,1.8509131619,-1.3068970772,1.67572039
 52\H,0.2930832694,-1.7615874556,0.88484572\\Version=ES64L-G16RevA.03\S
 tate=1-A\HF=-211.1432106,-211.1430806,-211.1426183,-211.1421074,-211.1
 293368,-211.0921838,-211.0277574\MP2=-211.8273514,-211.827343,-211.826
 907,-211.8256179,-211.8154178,-211.7837533,-211.7294631\RMSD=3.619e-09
 ,2.560e-09,3.078e-09,2.838e-09,8.883e-09,5.464e-09,6.975e-09\PG=C01 [X
 (C4H9N1)]\\@


 FAULTILY FAULTLESS, ICILY REGULAR, SPLENDIDLY NULL...
           MAUDE BY TENNYSON
 Job cpu time:       0 days  0 hours 22 minutes 17.2 seconds.
 Elapsed time:       0 days  0 hours 21 minutes 58.0 seconds.
 File lengths (MBytes):  RWF=     10 Int=      0 D2E=      0 Chk=      3 Scr=      1
 Normal termination of Gaussian 16 at Fri Apr  2 19:19:25 2021.
