 Entering Gaussian System, Link 0=g16
 Initial command:
 /home1/apps/gaussian/16rA.03/g16/l1.exe "/tmp/Gau-51507.inp" -scrdir="/tmp/"
 Entering Link 1 = /home1/apps/gaussian/16rA.03/g16/l1.exe PID=     51508.
  
 Copyright (c) 1988,1990,1992,1993,1995,1998,2003,2009,2016,
            Gaussian, Inc.  All Rights Reserved.
  
 This is part of the Gaussian(R) 16 program.  It is based on
 the Gaussian(R) 09 system (copyright 2009, Gaussian, Inc.),
 the Gaussian(R) 03 system (copyright 2003, Gaussian, Inc.),
 the Gaussian(R) 98 system (copyright 1998, Gaussian, Inc.),
 the Gaussian(R) 94 system (copyright 1995, Gaussian, Inc.),
 the Gaussian 92(TM) system (copyright 1992, Gaussian, Inc.),
 the Gaussian 90(TM) system (copyright 1990, Gaussian, Inc.),
 the Gaussian 88(TM) system (copyright 1988, Gaussian, Inc.),
 the Gaussian 86(TM) system (copyright 1986, Carnegie Mellon
 University), and the Gaussian 82(TM) system (copyright 1983,
 Carnegie Mellon University). Gaussian is a federally registered
 trademark of Gaussian, Inc.
  
 This software contains proprietary and confidential information,
 including trade secrets, belonging to Gaussian, Inc.
  
 This software is provided under written license and may be
 used, copied, transmitted, or stored only in accord with that
 written license.
  
 The following legend is applicable only to US Government
 contracts under FAR:
  
                    RESTRICTED RIGHTS LEGEND
  
 Use, reproduction and disclosure by the US Government is
 subject to restrictions as set forth in subparagraphs (a)
 and (c) of the Commercial Computer Software - Restricted
 Rights clause in FAR 52.227-19.
  
 Gaussian, Inc.
 340 Quinnipiac St., Bldg. 40, Wallingford CT 06492
  
  
 ---------------------------------------------------------------
 Warning -- This program may not be used in any manner that
 competes with the business of Gaussian, Inc. or will provide
 assistance to any competitor of Gaussian, Inc.  The licensee
 of this program is prohibited from giving any competitor of
 Gaussian, Inc. access to this program.  By using this program,
 the user acknowledges that Gaussian, Inc. is engaged in the
 business of creating and licensing software in the field of
 computational chemistry and represents and warrants to the
 licensee that it is not a competitor of Gaussian, Inc. and that
 it will not use this program in any manner prohibited above.
 ---------------------------------------------------------------
  

 Cite this work as:
 Gaussian 16, Revision A.03,
 M. J. Frisch, G. W. Trucks, H. B. Schlegel, G. E. Scuseria, 
 M. A. Robb, J. R. Cheeseman, G. Scalmani, V. Barone, 
 G. A. Petersson, H. Nakatsuji, X. Li, M. Caricato, A. V. Marenich, 
 J. Bloino, B. G. Janesko, R. Gomperts, B. Mennucci, H. P. Hratchian, 
 J. V. Ortiz, A. F. Izmaylov, J. L. Sonnenberg, D. Williams-Young, 
 F. Ding, F. Lipparini, F. Egidi, J. Goings, B. Peng, A. Petrone, 
 T. Henderson, D. Ranasinghe, V. G. Zakrzewski, J. Gao, N. Rega, 
 G. Zheng, W. Liang, M. Hada, M. Ehara, K. Toyota, R. Fukuda, 
 J. Hasegawa, M. Ishida, T. Nakajima, Y. Honda, O. Kitao, H. Nakai, 
 T. Vreven, K. Throssell, J. A. Montgomery, Jr., J. E. Peralta, 
 F. Ogliaro, M. J. Bearpark, J. J. Heyd, E. N. Brothers, K. N. Kudin, 
 V. N. Staroverov, T. A. Keith, R. Kobayashi, J. Normand, 
 K. Raghavachari, A. P. Rendell, J. C. Burant, S. S. Iyengar, 
 J. Tomasi, M. Cossi, J. M. Millam, M. Klene, C. Adamo, R. Cammi, 
 J. W. Ochterski, R. L. Martin, K. Morokuma, O. Farkas, 
 J. B. Foresman, and D. J. Fox, Gaussian, Inc., Wallingford CT, 2016.
 
 ******************************************
 Gaussian 16:  ES64L-G16RevA.03 25-Dec-2016
                 2-Apr-2021 
 ******************************************
 %chk=PRLD.scan1.neg.chk
 %nproc=1
 Will use up to    1 processors via shared memory.
 %mem=1GB
 -----------------------------------------------------
 # opt=modredundant MP2/6-31g(d) Geom=PrintInputOrient
 -----------------------------------------------------
 1/18=120,19=15,38=1/1,3;
 2/9=2110,12=2,17=6,18=5,40=1/2;
 3/5=1,6=6,7=1,11=9,25=1,30=1,71=1/1,2,3;
 4//1;
 5/5=2,38=5/2;
 8/6=4,10=2/1;
 9/15=2,16=-3/6;
 10/5=1/2;
 6/7=2,8=2,9=2,10=2/1;
 7/12=2/1,2,3,16;
 1/18=20,19=15/3(2);
 2/9=2110/2;
 99//99;
 2/9=2110/2;
 3/5=1,6=6,7=1,11=9,25=1,30=1,71=1/1,2,3;
 4/5=5,16=3,69=1/1;
 5/5=2,38=5/2;
 8/6=4,10=2/1;
 9/15=2,16=-3/6;
 10/5=1/2;
 7/12=2/1,2,3,16;
 1/18=20,19=15/3(-8);
 2/9=2110/2;
 6/7=2,8=2,9=2,10=2/1;
 99//99;
 ---------------------------
 PRLD Dihedral/Improper Scan
 ---------------------------
 Symbolic Z-matrix:
 Charge =  0 Multiplicity = 1
 N1                    0.844     0.456     0.923 
 H2                    1.372     0.495     1.798 
 C3                    1.643     1.125    -0.113 
 H4                    2.        2.097     0.243 
 H5                    0.987     1.307    -0.971 
 C6                    2.779     0.153    -0.504 
 H7                    3.689     0.384     0.059 
 H8                    3.031     0.222    -1.566 
 C9                    2.231    -1.24     -0.112 
 H10                   2.866    -1.707     0.647 
 H11                   2.185    -1.928    -0.962 
 C12                   0.83     -0.941     0.469 
 H13                   0.542    -1.609     1.286 
 H14                   0.068    -1.027    -0.314 
 
 The following ModRedundant input section has been read:
 D       6       9      12       1 S   6 -15.00                                
 

 GradGradGradGradGradGradGradGradGradGradGradGradGradGradGradGradGradGrad
 Berny optimization.
 Initialization pass.
                           ----------------------------
                           !    Initial Parameters    !
                           ! (Angstroms and Degrees)  !
 --------------------------                            --------------------------
 ! Name  Definition              Value          Derivative Info.                !
 --------------------------------------------------------------------------------
 ! R1    R(1,2)                  1.0227         estimate D2E/DX2                !
 ! R2    R(1,3)                  1.4694         estimate D2E/DX2                !
 ! R3    R(1,12)                 1.469          estimate D2E/DX2                !
 ! R4    R(3,4)                  1.095          estimate D2E/DX2                !
 ! R5    R(3,5)                  1.0953         estimate D2E/DX2                !
 ! R6    R(3,6)                  1.5454         estimate D2E/DX2                !
 ! R7    R(6,7)                  1.0947         estimate D2E/DX2                !
 ! R8    R(6,8)                  1.0937         estimate D2E/DX2                !
 ! R9    R(6,9)                  1.5474         estimate D2E/DX2                !
 ! R10   R(9,10)                 1.0943         estimate D2E/DX2                !
 ! R11   R(9,11)                 1.0945         estimate D2E/DX2                !
 ! R12   R(9,12)                 1.5459         estimate D2E/DX2                !
 ! R13   R(12,13)                1.0939         estimate D2E/DX2                !
 ! R14   R(12,14)                1.096          estimate D2E/DX2                !
 ! A1    A(2,1,3)              107.7654         estimate D2E/DX2                !
 ! A2    A(2,1,12)             107.7946         estimate D2E/DX2                !
 ! A3    A(3,1,12)             102.7239         estimate D2E/DX2                !
 ! A4    A(1,3,4)              110.6221         estimate D2E/DX2                !
 ! A5    A(1,3,5)              107.5946         estimate D2E/DX2                !
 ! A6    A(1,3,6)              106.9617         estimate D2E/DX2                !
 ! A7    A(4,3,5)              107.6053         estimate D2E/DX2                !
 ! A8    A(4,3,6)              113.6363         estimate D2E/DX2                !
 ! A9    A(5,3,6)              110.279          estimate D2E/DX2                !
 ! A10   A(3,6,7)              110.3782         estimate D2E/DX2                !
 ! A11   A(3,6,8)              112.0481         estimate D2E/DX2                !
 ! A12   A(3,6,9)              103.9924         estimate D2E/DX2                !
 ! A13   A(7,6,8)              107.1301         estimate D2E/DX2                !
 ! A14   A(7,6,9)              110.7358         estimate D2E/DX2                !
 ! A15   A(8,6,9)              112.6059         estimate D2E/DX2                !
 ! A16   A(6,9,10)             110.7565         estimate D2E/DX2                !
 ! A17   A(6,9,11)             112.5829         estimate D2E/DX2                !
 ! A18   A(6,9,12)             104.0073         estimate D2E/DX2                !
 ! A19   A(10,9,11)            107.145          estimate D2E/DX2                !
 ! A20   A(10,9,12)            110.3511         estimate D2E/DX2                !
 ! A21   A(11,9,12)            112.0469         estimate D2E/DX2                !
 ! A22   A(1,12,9)             106.9451         estimate D2E/DX2                !
 ! A23   A(1,12,13)            110.635          estimate D2E/DX2                !
 ! A24   A(1,12,14)            107.581          estimate D2E/DX2                !
 ! A25   A(9,12,13)            113.6523         estimate D2E/DX2                !
 ! A26   A(9,12,14)            110.2689         estimate D2E/DX2                !
 ! A27   A(13,12,14)           107.615          estimate D2E/DX2                !
 ! D1    D(2,1,3,4)            -48.7385         estimate D2E/DX2                !
 ! D2    D(2,1,3,5)           -166.0198         estimate D2E/DX2                !
 ! D3    D(2,1,3,6)             75.4998         estimate D2E/DX2                !
 ! D4    D(12,1,3,4)          -162.4            estimate D2E/DX2                !
 ! D5    D(12,1,3,5)            80.3186         estimate D2E/DX2                !
 ! D6    D(12,1,3,6)           -38.1617         estimate D2E/DX2                !
 ! D7    D(2,1,12,9)           -75.5014         estimate D2E/DX2                !
 ! D8    D(2,1,12,13)           48.7538         estimate D2E/DX2                !
 ! D9    D(2,1,12,14)          166.0459         estimate D2E/DX2                !
 ! D10   D(3,1,12,9)            38.1387         estimate D2E/DX2                !
 ! D11   D(3,1,12,13)          162.3939         estimate D2E/DX2                !
 ! D12   D(3,1,12,14)          -80.314          estimate D2E/DX2                !
 ! D13   D(1,3,6,7)            -95.3684         estimate D2E/DX2                !
 ! D14   D(1,3,6,8)            145.3276         estimate D2E/DX2                !
 ! D15   D(1,3,6,9)             23.4354         estimate D2E/DX2                !
 ! D16   D(4,3,6,7)             27.004          estimate D2E/DX2                !
 ! D17   D(4,3,6,8)            -92.2999         estimate D2E/DX2                !
 ! D18   D(4,3,6,9)            145.8078         estimate D2E/DX2                !
 ! D19   D(5,3,6,7)            147.9132         estimate D2E/DX2                !
 ! D20   D(5,3,6,8)             28.6092         estimate D2E/DX2                !
 ! D21   D(5,3,6,9)            -93.2831         estimate D2E/DX2                !
 ! D22   D(3,6,9,10)          -118.5629         estimate D2E/DX2                !
 ! D23   D(3,6,9,11)           121.4993         estimate D2E/DX2                !
 ! D24   D(3,6,9,12)            -0.0176         estimate D2E/DX2                !
 ! D25   D(7,6,9,10)            -0.0044         estimate D2E/DX2                !
 ! D26   D(7,6,9,11)          -119.9421         estimate D2E/DX2                !
 ! D27   D(7,6,9,12)           118.541          estimate D2E/DX2                !
 ! D28   D(8,6,9,10)           119.9156         estimate D2E/DX2                !
 ! D29   D(8,6,9,11)            -0.0222         estimate D2E/DX2                !
 ! D30   D(8,6,9,12)          -121.5391         estimate D2E/DX2                !
 ! D31   D(6,9,12,1)           -23.4104         Scan                            !
 ! D32   D(6,9,12,13)         -145.7976         estimate D2E/DX2                !
 ! D33   D(6,9,12,14)           93.2771         estimate D2E/DX2                !
 ! D34   D(10,9,12,1)           95.4127         estimate D2E/DX2                !
 ! D35   D(10,9,12,13)         -26.9744         estimate D2E/DX2                !
 ! D36   D(10,9,12,14)        -147.8998         estimate D2E/DX2                !
 ! D37   D(11,9,12,1)         -145.2836         estimate D2E/DX2                !
 ! D38   D(11,9,12,13)          92.3293         estimate D2E/DX2                !
 ! D39   D(11,9,12,14)         -28.5961         estimate D2E/DX2                !
 --------------------------------------------------------------------------------
 Trust Radius=3.00D-01 FncErr=1.00D-07 GrdErr=1.00D-07 EigMax=2.50D+02 EigMin=1.00D-04
 Number of optimizations in scan=   7
 Number of steps in this run=     90 maximum allowed number of steps=    100.
 GradGradGradGradGradGradGradGradGradGradGradGradGradGradGradGradGradGrad

                          Input orientation:                          
 ---------------------------------------------------------------------
 Center     Atomic      Atomic             Coordinates (Angstroms)
 Number     Number       Type             X           Y           Z
 ---------------------------------------------------------------------
      1          7           0        0.844000    0.456000    0.923000
      2          1           0        1.372000    0.495000    1.798000
      3          6           0        1.643000    1.125000   -0.113000
      4          1           0        2.000000    2.097000    0.243000
      5          1           0        0.987000    1.307000   -0.971000
      6          6           0        2.779000    0.153000   -0.504000
      7          1           0        3.689000    0.384000    0.059000
      8          1           0        3.031000    0.222000   -1.566000
      9          6           0        2.231000   -1.240000   -0.112000
     10          1           0        2.866000   -1.707000    0.647000
     11          1           0        2.185000   -1.928000   -0.962000
     12          6           0        0.830000   -0.941000    0.469000
     13          1           0        0.542000   -1.609000    1.286000
     14          1           0        0.068000   -1.027000   -0.314000
 ---------------------------------------------------------------------
                    Distance matrix (angstroms):
                    1          2          3          4          5
     1  N    0.000000
     2  H    1.022707   0.000000
     3  C    1.469441   2.030335   0.000000
     4  H    2.119343   2.319227   1.094974   0.000000
     5  H    2.081318   2.911173   1.095274   1.767502   0.000000
     6  C    2.423296   2.719525   1.545368   2.223508   2.181987
     7  H    2.974173   2.899126   2.182838   2.412664   3.035397
     8  H    3.321573   3.760759   2.202989   2.801975   2.389390
     9  C    2.423099   2.719597   2.437000   3.363771   2.961862
    10  H    2.973757   2.899248   3.177035   3.922192   3.902917
    11  H    3.321891   3.761582   3.214868   4.205577   3.449712
    12  C    1.468986   2.030296   2.295223   3.263345   2.674276
    13  H    2.118301   2.319021   3.262539   4.116801   3.714180
    14  H    2.081258   2.911605   2.674347   3.715138   2.593023
                    6          7          8          9         10
     6  C    0.000000
     7  H    1.094728   0.000000
     8  H    1.093668   1.760634   0.000000
     9  C    1.547390   2.189151   2.211687   0.000000
    10  H    2.189057   2.322790   2.940346   1.094255   0.000000
    11  H    2.212049   2.941054   2.388102   1.094514   1.761103
    12  C    2.437656   3.177673   3.215306   1.545886   2.182598
    13  H    3.363467   3.921886   4.204948   2.223350   2.412240
    14  H    2.962773   3.904061   3.450634   2.182829   3.035577
                   11         12         13         14
    11  H    0.000000
    12  C    2.204077   0.000000
    13  H    2.802626   1.093918   0.000000
    14  H    2.390271   1.095960   1.767314   0.000000
 Stoichiometry    C4H9N
 Framework group  C1[X(C4H9N)]
 Deg. of freedom    36
 Full point group                 C1      NOp   1
 Largest Abelian subgroup         C1      NOp   1
 Largest concise Abelian subgroup C1      NOp   1
                         Standard orientation:                         
 ---------------------------------------------------------------------
 Center     Atomic      Atomic             Coordinates (Angstroms)
 Number     Number       Type             X           Y           Z
 ---------------------------------------------------------------------
      1          7           0       -0.009754   -1.267896   -0.216048
      2          1           0       -0.009609   -1.307741   -1.237979
      3          6           0        1.144047   -0.459296    0.201285
      4          1           0        2.052841   -0.790293   -0.312042
      5          1           0        1.291688   -0.622098    1.274281
      6          6           0        0.781546    1.017994   -0.071425
      7          1           0        1.171547    1.332796   -1.044681
      8          1           0        1.207027    1.690375    0.678894
      9          6           0       -0.765800    1.029688   -0.071443
     10          1           0       -1.151178    1.350244   -1.044131
     11          1           0       -1.181004    1.708768    0.679833
     12          6           0       -1.151114   -0.442432    0.200878
     13          1           0       -2.063843   -0.759288   -0.312137
     14          1           0       -1.301266   -0.603214    1.274532
 ---------------------------------------------------------------------
 Rotational constants (GHZ):           6.8866106           6.6914801           3.9136725
 Standard basis: 6-31G(d) (6D, 7F)
 There are    93 symmetry adapted cartesian basis functions of A   symmetry.
 There are    93 symmetry adapted basis functions of A   symmetry.
    93 basis functions,   176 primitive gaussians,    93 cartesian basis functions
    20 alpha electrons       20 beta electrons
       nuclear repulsion energy       190.0136865772 Hartrees.
 NAtoms=   14 NActive=   14 NUniq=   14 SFac= 1.00D+00 NAtFMM=   60 NAOKFM=F Big=F
 Integral buffers will be    131072 words long.
 Raffenetti 1 integral format.
 Two-electron integral symmetry is turned on.
 One-electron integrals computed using PRISM.
 NBasis=    93 RedAO= T EigKep=  3.15D-03  NBF=    93
 NBsUse=    93 1.00D-06 EigRej= -1.00D+00 NBFU=    93
 ExpMin= 1.61D-01 ExpMax= 4.17D+03 ExpMxC= 6.27D+02 IAcc=3 IRadAn=         5 AccDes= 0.00D+00
 Harris functional with IExCor=  205 and IRadAn=       5 diagonalized for initial guess.
 HarFok:  IExCor=  205 AccDes= 0.00D+00 IRadAn=         5 IDoV= 1 UseB2=F ITyADJ=14
 ICtDFT=  3500011 ScaDFX=  1.000000  1.000000  1.000000  1.000000
 FoFCou: FMM=F IPFlag=           0 FMFlag=      100000 FMFlg1=           0
         NFxFlg=           0 DoJE=T BraDBF=F KetDBF=T FulRan=T
         wScrn=  0.000000 ICntrl=       500 IOpCl=  0 I1Cent=   200000004 NGrid=           0
         NMat0=    1 NMatS0=      1 NMatT0=    0 NMatD0=    1 NMtDS0=    0 NMtDT0=    0
 Petite list used in FoFCou.
 Keep R1 ints in memory in canonical form, NReq=10436288.
 Requested convergence on RMS density matrix=1.00D-08 within 128 cycles.
 Requested convergence on MAX density matrix=1.00D-06.
 Requested convergence on             energy=1.00D-06.
 No special actions if energy rises.
 SCF Done:  E(RHF) =  -211.143200098     A.U. after   12 cycles
            NFock= 12  Conv=0.39D-08     -V/T= 2.0015
 ExpMin= 1.61D-01 ExpMax= 4.17D+03 ExpMxC= 6.27D+02 IAcc=3 IRadAn=         5 AccDes= 0.00D+00
 HarFok:  IExCor=  205 AccDes= 0.00D+00 IRadAn=         5 IDoV=-2 UseB2=F ITyADJ=14
 ICtDFT= 12500011 ScaDFX=  1.000000  1.000000  1.000000  1.000000
 Range of M.O.s used for correlation:     6    93
 NBasis=    93 NAE=    20 NBE=    20 NFC=     5 NFV=     0
 NROrb=     88 NOA=    15 NOB=    15 NVA=    73 NVB=    73
 Fully direct method using O(ONN) memory.
 JobTyp=1 Pass  1:  I=   6 to  20 NPSUse=  1 ParTrn=F ParDer=F DoDerP=T.
 Spin components of T(2) and E(2):
     alpha-alpha T2 =       0.2790801328D-01 E2=     -0.8405127363D-01
     alpha-beta  T2 =       0.1679168201D+00 E2=     -0.5160463410D+00
     beta-beta   T2 =       0.2790801328D-01 E2=     -0.8405127363D-01
 ANorm=    0.1106224591D+01
 E2 =    -0.6841488883D+00 EUMP2 =    -0.21182734898599D+03
          IDoAtm=11111111111111
          Differentiating once with respect to electric field.
                with respect to dipole field.
          Differentiating once with respect to nuclear coordinates.
 Keep R1 ints in memory in canonical form, NReq=10438744.
          There are     1 degrees of freedom in the 1st order CPHF.  IDoFFX=0 NUNeed=     1.
 LinEq1:  Iter=  0 NonCon=     1 RMS=4.26D-03 Max=4.54D-02 NDo=     1
 AX will form     1 AO Fock derivatives at one time.
 LinEq1:  Iter=  1 NonCon=     1 RMS=1.43D-03 Max=1.40D-02 NDo=     1
 LinEq1:  Iter=  2 NonCon=     1 RMS=2.90D-04 Max=3.43D-03 NDo=     1
 LinEq1:  Iter=  3 NonCon=     1 RMS=5.58D-05 Max=4.08D-04 NDo=     1
 LinEq1:  Iter=  4 NonCon=     1 RMS=1.18D-05 Max=1.55D-04 NDo=     1
 LinEq1:  Iter=  5 NonCon=     1 RMS=4.47D-06 Max=3.98D-05 NDo=     1
 LinEq1:  Iter=  6 NonCon=     1 RMS=1.05D-06 Max=1.56D-05 NDo=     1
 LinEq1:  Iter=  7 NonCon=     1 RMS=1.91D-07 Max=1.83D-06 NDo=     1
 LinEq1:  Iter=  8 NonCon=     1 RMS=6.29D-08 Max=5.75D-07 NDo=     1
 LinEq1:  Iter=  9 NonCon=     1 RMS=1.37D-08 Max=1.24D-07 NDo=     1
 LinEq1:  Iter= 10 NonCon=     1 RMS=3.65D-09 Max=2.96D-08 NDo=     1
 LinEq1:  Iter= 11 NonCon=     1 RMS=6.11D-10 Max=7.96D-09 NDo=     1
 LinEq1:  Iter= 12 NonCon=     1 RMS=1.20D-10 Max=1.50D-09 NDo=     1
 LinEq1:  Iter= 13 NonCon=     0 RMS=1.91D-11 Max=1.76D-10 NDo=     1
 Linear equations converged to 1.000D-10 1.000D-09 after    13 iterations.
 End of Minotr F.D. properties file   721 does not exist.
 End of Minotr F.D. properties file   722 does not exist.
 End of Minotr F.D. properties file   788 does not exist.

 **********************************************************************

            Population analysis using the SCF density.

 **********************************************************************

 Orbital symmetries:
       Occupied  (A) (A) (A) (A) (A) (A) (A) (A) (A) (A) (A) (A)
                 (A) (A) (A) (A) (A) (A) (A) (A)
       Virtual   (A) (A) (A) (A) (A) (A) (A) (A) (A) (A) (A) (A)
                 (A) (A) (A) (A) (A) (A) (A) (A) (A) (A) (A) (A)
                 (A) (A) (A) (A) (A) (A) (A) (A) (A) (A) (A) (A)
                 (A) (A) (A) (A) (A) (A) (A) (A) (A) (A) (A) (A)
                 (A) (A) (A) (A) (A) (A) (A) (A) (A) (A) (A) (A)
                 (A) (A) (A) (A) (A) (A) (A) (A) (A) (A) (A) (A)
                 (A)
 The electronic state is 1-A.
 Alpha  occ. eigenvalues --  -15.54076 -11.24200 -11.24195 -11.21855 -11.21799
 Alpha  occ. eigenvalues --   -1.21663  -1.01921  -0.96899  -0.81410  -0.78334
 Alpha  occ. eigenvalues --   -0.67516  -0.63699  -0.58968  -0.58396  -0.50622
 Alpha  occ. eigenvalues --   -0.49289  -0.47912  -0.47626  -0.45740  -0.37275
 Alpha virt. eigenvalues --    0.21279   0.24725   0.28660   0.29029   0.30117
 Alpha virt. eigenvalues --    0.32558   0.33858   0.33958   0.36392   0.37738
 Alpha virt. eigenvalues --    0.40785   0.41401   0.48517   0.52442   0.72779
 Alpha virt. eigenvalues --    0.76267   0.76616   0.79767   0.80365   0.83842
 Alpha virt. eigenvalues --    0.90478   0.92044   0.92595   0.94963   1.01860
 Alpha virt. eigenvalues --    1.02452   1.09480   1.10988   1.12808   1.13150
 Alpha virt. eigenvalues --    1.15438   1.17173   1.19496   1.20850   1.21106
 Alpha virt. eigenvalues --    1.23722   1.24020   1.24151   1.49539   1.52543
 Alpha virt. eigenvalues --    1.59180   1.59545   1.69288   1.90975   2.00838
 Alpha virt. eigenvalues --    2.08684   2.12260   2.13555   2.19833   2.22442
 Alpha virt. eigenvalues --    2.29045   2.31775   2.35028   2.42288   2.43267
 Alpha virt. eigenvalues --    2.43361   2.51046   2.57266   2.59218   2.71449
 Alpha virt. eigenvalues --    2.73627   2.81719   2.90009   2.95574   2.97825
 Alpha virt. eigenvalues --    2.98905   3.02819   3.24107   4.34967   4.60737
 Alpha virt. eigenvalues --    4.68019   4.86124   5.04389
          Condensed to atoms (all electrons):
               1          2          3          4          5          6
     1  N    7.058662   0.327541   0.294203  -0.033404  -0.047556  -0.084999
     2  H    0.327541   0.433304  -0.042392  -0.005379   0.005680  -0.000687
     3  C    0.294203  -0.042392   4.977886   0.403748   0.406065   0.333688
     4  H   -0.033404  -0.005379   0.403748   0.521240  -0.026325  -0.035555
     5  H   -0.047556   0.005680   0.406065  -0.026325   0.544869  -0.053864
     6  C   -0.084999  -0.000687   0.333688  -0.035555  -0.053864   5.205597
     7  H    0.002637   0.000959  -0.038300  -0.004204   0.003824   0.396024
     8  H    0.004386  -0.000026  -0.032387   0.001335  -0.002463   0.391464
     9  C   -0.085089  -0.000691  -0.061393   0.003840  -0.000390   0.321496
    10  H    0.002649   0.000958   0.003257  -0.000161  -0.000013  -0.038489
    11  H    0.004384  -0.000026   0.002984  -0.000064   0.000166  -0.033459
    12  C    0.294002  -0.042370  -0.094809   0.006117  -0.001884  -0.061284
    13  H   -0.033416  -0.005385   0.006123  -0.000114  -0.000171   0.003829
    14  H   -0.047622   0.005682  -0.001900  -0.000171   0.003456  -0.000382
               7          8          9         10         11         12
     1  N    0.002637   0.004386  -0.085089   0.002649   0.004384   0.294002
     2  H    0.000959  -0.000026  -0.000691   0.000958  -0.000026  -0.042370
     3  C   -0.038300  -0.032387  -0.061393   0.003257   0.002984  -0.094809
     4  H   -0.004204   0.001335   0.003840  -0.000161  -0.000064   0.006117
     5  H    0.003824  -0.002463  -0.000390  -0.000013   0.000166  -0.001884
     6  C    0.396024   0.391464   0.321496  -0.038489  -0.033459  -0.061284
     7  H    0.542616  -0.025836  -0.038527  -0.006280   0.002599   0.003251
     8  H   -0.025836   0.527014  -0.033400   0.002596  -0.003631   0.002974
     9  C   -0.038527  -0.033400   5.205831   0.395992   0.391377   0.333836
    10  H   -0.006280   0.002596   0.395992   0.542443  -0.025801  -0.038327
    11  H    0.002599  -0.003631   0.391377  -0.025801   0.527314  -0.032361
    12  C    0.003251   0.002974   0.333836  -0.038327  -0.032361   4.977646
    13  H   -0.000161  -0.000063  -0.035505  -0.004188   0.001332   0.403827
    14  H   -0.000013   0.000165  -0.053852   0.003822  -0.002460   0.406044
              13         14
     1  N   -0.033416  -0.047622
     2  H   -0.005385   0.005682
     3  C    0.006123  -0.001900
     4  H   -0.000114  -0.000171
     5  H   -0.000171   0.003456
     6  C    0.003829  -0.000382
     7  H   -0.000161  -0.000013
     8  H   -0.000063   0.000165
     9  C   -0.035505  -0.053852
    10  H   -0.004188   0.003822
    11  H    0.001332  -0.002460
    12  C    0.403827   0.406044
    13  H    0.520894  -0.026326
    14  H   -0.026326   0.545162
 Mulliken charges:
               1
     1  N   -0.656379
     2  H    0.322831
     3  C   -0.156772
     4  H    0.169095
     5  H    0.168606
     6  C   -0.343380
     7  H    0.161410
     8  H    0.167872
     9  C   -0.343527
    10  H    0.161542
    11  H    0.167645
    12  C   -0.156662
    13  H    0.169324
    14  H    0.168395
 Sum of Mulliken charges =  -0.00000
 Mulliken charges with hydrogens summed into heavy atoms:
               1
     1  N   -0.333548
     3  C    0.180929
     6  C   -0.014098
     9  C   -0.014340
    12  C    0.181057
 Electronic spatial extent (au):  <R**2>=            390.2955
 Charge=             -0.0000 electrons
 Dipole moment (field-independent basis, Debye):
    X=              0.0108    Y=              1.4000    Z=             -0.6708  Tot=              1.5525
 Quadrupole moment (field-independent basis, Debye-Ang):
   XX=            -31.4430   YY=            -37.4386   ZZ=            -30.3356
   XY=             -0.0423   XZ=              0.0141   YZ=              1.4414
 Traceless Quadrupole moment (field-independent basis, Debye-Ang):
   XX=              1.6294   YY=             -4.3662   ZZ=              2.7368
   XY=             -0.0423   XZ=              0.0141   YZ=              1.4414
 Octapole moment (field-independent basis, Debye-Ang**2):
  XXX=             -0.0557  YYY=              7.4680  ZZZ=             -2.5630  XYY=              0.0925
  XXY=             -2.2856  XXZ=             -1.0006  XZZ=             -0.0165  YZZ=             -2.3218
  YYZ=             -1.4684  XYZ=             -0.0024
 Hexadecapole moment (field-independent basis, Debye-Ang**3):
 XXXX=           -226.6934 YYYY=           -248.7377 ZZZZ=            -65.8087 XXXY=              0.0072
 XXXZ=              0.0625 YYYX=             -0.1840 YYYZ=              5.7507 ZZZX=              0.0341
 ZZZY=              3.2304 XXYY=            -75.0449 XXZZ=            -48.5104 YYZZ=            -45.1589
 XXYZ=              2.0821 YYXZ=              0.0159 ZZXY=              0.0194
 N-N= 1.900136865772D+02 E-N=-8.720763185249D+02  KE= 2.108304137868D+02
 Calling FoFJK, ICntrl=  10002127 FMM=F ISym2X=0 I1Cent= 0 IOpClX= 0 NMat=1 NMatS=1 NMatT=0.
 ***** Axes restored to original set *****
 -------------------------------------------------------------------
 Center     Atomic                   Forces (Hartrees/Bohr)
 Number     Number              X              Y              Z
 -------------------------------------------------------------------
      1        7           0.000067218    0.000324295    0.000355385
      2        1          -0.000147219   -0.000035560   -0.000241089
      3        6           0.000758105    0.000773310    0.000735129
      4        1          -0.000288273   -0.000698691   -0.000271797
      5        1          -0.000308412    0.000033250   -0.000433494
      6        6          -0.000098258    0.000152779    0.000315185
      7        1          -0.000099833   -0.000004959   -0.000060197
      8        1           0.000110722   -0.000045813   -0.000301852
      9        6          -0.000507108   -0.000177978   -0.000275408
     10        1           0.000133008   -0.000094664    0.000103544
     11        1           0.000074374    0.000132703    0.000198827
     12        6           0.000296758   -0.000382461    0.000076681
     13        1           0.000028013    0.000050298   -0.000099903
     14        1          -0.000019094   -0.000026509   -0.000101012
 -------------------------------------------------------------------
 Cartesian Forces:  Max     0.000773310 RMS     0.000306300

 GradGradGradGradGradGradGradGradGradGradGradGradGradGradGradGradGradGrad
 Berny optimization.
 FormGI is forming the generalized inverse of G from B-inverse, IUseBI=4.
 Internal  Forces:  Max     0.000802576 RMS     0.000137397
 Search for a local minimum.
 Step number   1 out of a maximum of   90 on scan point     1 out of     7
 All quantities printed in internal units (Hartrees-Bohrs-Radians)
 Mixed Optimization -- En-DIIS/RFO-DIIS
 Second derivative matrix not updated -- first step.
 ITU=  0
     Eigenvalues ---    0.00565   0.01464   0.02311   0.02409   0.04343
     Eigenvalues ---    0.04575   0.04959   0.05414   0.05521   0.05728
     Eigenvalues ---    0.05917   0.06889   0.06892   0.08232   0.08733
     Eigenvalues ---    0.08798   0.09319   0.11014   0.11399   0.20467
     Eigenvalues ---    0.20555   0.26479   0.26848   0.28012   0.33471
     Eigenvalues ---    0.34133   0.34210   0.34244   0.34272   0.34296
     Eigenvalues ---    0.34325   0.34349   0.34364   0.34392   0.43909
     Eigenvalues --- 1000.000001000.000001000.000001000.000001000.00000
     Eigenvalues --- 1000.000001000.000001000.000001000.000001000.00000
     Eigenvalues --- 1000.000001000.000001000.000001000.000001000.00000
     Eigenvalues --- 1000.000001000.000001000.000001000.000001000.00000
     Eigenvalues --- 1000.000001000.000001000.000001000.000001000.00000
     Eigenvalues --- 1000.000001000.000001000.000001000.000001000.00000
     Eigenvalues --- 1000.000001000.000001000.000001000.000001000.00000
     Eigenvalues --- 1000.000001000.000001000.000001000.000001000.00000
     Eigenvalues --- 1000.000001000.000001000.000001000.000001000.00000
 RFO step:  Lambda=-4.86071448D-06 EMin= 5.64610331D-03
 Linear search not attempted -- first point.
 Iteration  1 RMS(Cart)=  0.00042243 RMS(Int)=  0.00000020
 Iteration  2 RMS(Cart)=  0.00000019 RMS(Int)=  0.00000007
 Iteration  1 RMS(Cart)=  0.00000000 RMS(Int)=  0.00000001
 Variable       Old X    -DE/DX   Delta X   Delta X   Delta X     New X
                                 (Linear)    (Quad)   (Total)
    R1        1.93264  -0.00028   0.00000  -0.00065  -0.00065   1.93199
    R2        2.77684   0.00007   0.00000   0.00025   0.00025   2.77709
    R3        2.77598   0.00035   0.00000   0.00102   0.00102   2.77700
    R4        2.06920  -0.00080   0.00000  -0.00234  -0.00234   2.06686
    R5        2.06977   0.00053   0.00000   0.00155   0.00155   2.07132
    R6        2.92032  -0.00004   0.00000  -0.00012  -0.00012   2.92020
    R7        2.06874  -0.00011   0.00000  -0.00034  -0.00034   2.06840
    R8        2.06673   0.00032   0.00000   0.00092   0.00092   2.06765
    R9        2.92414   0.00015   0.00000   0.00045   0.00045   2.92460
   R10        2.06784   0.00019   0.00000   0.00055   0.00055   2.06839
   R11        2.06833  -0.00024   0.00000  -0.00070  -0.00070   2.06763
   R12        2.92130  -0.00026   0.00000  -0.00098  -0.00098   2.92032
   R13        2.06721  -0.00011   0.00000  -0.00033  -0.00033   2.06688
   R14        2.07106   0.00009   0.00000   0.00026   0.00026   2.07132
    A1        1.88086   0.00002   0.00000   0.00006   0.00006   1.88092
    A2        1.88137  -0.00002   0.00000  -0.00028  -0.00028   1.88109
    A3        1.79287  -0.00003   0.00000   0.00006   0.00006   1.79293
    A4        1.93072   0.00001   0.00000   0.00035   0.00035   1.93107
    A5        1.87788   0.00001   0.00000  -0.00033  -0.00033   1.87755
    A6        1.86683  -0.00005   0.00000  -0.00012  -0.00012   1.86671
    A7        1.87807   0.00000   0.00000   0.00013   0.00013   1.87819
    A8        1.98333   0.00006   0.00000   0.00060   0.00060   1.98393
    A9        1.92473  -0.00005   0.00000  -0.00068  -0.00068   1.92405
   A10        1.92646  -0.00005   0.00000  -0.00034  -0.00034   1.92612
   A11        1.95561   0.00003   0.00000   0.00063   0.00063   1.95624
   A12        1.81501   0.00008   0.00000   0.00042   0.00042   1.81543
   A13        1.86977   0.00001   0.00000  -0.00019  -0.00019   1.86958
   A14        1.93270   0.00000   0.00000  -0.00004  -0.00004   1.93267
   A15        1.96534  -0.00007   0.00000  -0.00047  -0.00047   1.96488
   A16        1.93307  -0.00001   0.00000  -0.00017  -0.00017   1.93290
   A17        1.96494  -0.00000   0.00000  -0.00003  -0.00003   1.96491
   A18        1.81527  -0.00001   0.00000  -0.00010  -0.00010   1.81517
   A19        1.87003  -0.00003   0.00000  -0.00041  -0.00041   1.86962
   A20        1.92599   0.00001   0.00000   0.00018   0.00018   1.92617
   A21        1.95559   0.00004   0.00000   0.00055   0.00055   1.95613
   A22        1.86654   0.00003   0.00000   0.00026   0.00026   1.86680
   A23        1.93094   0.00001   0.00000   0.00030   0.00030   1.93124
   A24        1.87764   0.00001   0.00000   0.00011   0.00011   1.87775
   A25        1.98361  -0.00001   0.00000   0.00004   0.00004   1.98364
   A26        1.92455  -0.00006   0.00000  -0.00070  -0.00070   1.92385
   A27        1.87824   0.00001   0.00000  -0.00000  -0.00000   1.87824
    D1       -0.85065  -0.00002   0.00000  -0.00020  -0.00020  -0.85085
    D2       -2.89759  -0.00004   0.00000  -0.00036  -0.00036  -2.89795
    D3        1.31772   0.00004   0.00000   0.00068   0.00068   1.31840
    D4       -2.83442   0.00002   0.00000   0.00005   0.00005  -2.83436
    D5        1.40182  -0.00001   0.00000  -0.00010  -0.00010   1.40172
    D6       -0.66605   0.00007   0.00000   0.00094   0.00094  -0.66511
    D7       -1.31775  -0.00002   0.00000  -0.00037  -0.00037  -1.31812
    D8        0.85091  -0.00000   0.00000   0.00003   0.00003   0.85094
    D9        2.89805   0.00003   0.00000   0.00026   0.00026   2.89830
   D10        0.66565  -0.00001   0.00000  -0.00038  -0.00038   0.66526
   D11        2.83431   0.00000   0.00000   0.00002   0.00002   2.83433
   D12       -1.40174   0.00003   0.00000   0.00025   0.00025  -1.40149
   D13       -1.66449  -0.00003   0.00000  -0.00075  -0.00075  -1.66524
   D14        2.53645  -0.00002   0.00000  -0.00068  -0.00068   2.53576
   D15        0.40902  -0.00001   0.00000  -0.00073  -0.00073   0.40830
   D16        0.47131  -0.00000   0.00000  -0.00001  -0.00001   0.47130
   D17       -1.61094   0.00000   0.00000   0.00006   0.00006  -1.61088
   D18        2.54483   0.00002   0.00000   0.00002   0.00002   2.54484
   D19        2.58157   0.00001   0.00000   0.00007   0.00007   2.58165
   D20        0.49932   0.00001   0.00000   0.00014   0.00014   0.49946
   D21       -1.62810   0.00003   0.00000   0.00010   0.00010  -1.62800
   D22       -2.06931   0.00001   0.00000   0.00038   0.00038  -2.06893
   D23        2.12056   0.00005   0.00000   0.00105   0.00105   2.12161
   D24       -0.00031   0.00001   0.00000   0.00046   0.00046   0.00015
   D25       -0.00008  -0.00001   0.00000   0.00020   0.00020   0.00012
   D26       -2.09339   0.00003   0.00000   0.00086   0.00086  -2.09252
   D27        2.06893  -0.00000   0.00000   0.00028   0.00028   2.06921
   D28        2.09292  -0.00005   0.00000  -0.00039  -0.00039   2.09253
   D29       -0.00039  -0.00000   0.00000   0.00027   0.00027  -0.00012
   D30       -2.12126  -0.00004   0.00000  -0.00032  -0.00032  -2.12157
   D31       -0.40859   0.00002   0.00000   0.00000   0.00000  -0.40859
   D32       -2.54465  -0.00001   0.00000  -0.00059  -0.00059  -2.54523
   D33        1.62799   0.00002   0.00000  -0.00010  -0.00010   1.62790
   D34        1.66527   0.00001   0.00000  -0.00016  -0.00016   1.66510
   D35       -0.47079  -0.00002   0.00000  -0.00075  -0.00075  -0.47154
   D36       -2.58134   0.00001   0.00000  -0.00026  -0.00026  -2.58160
   D37       -2.53568   0.00001   0.00000  -0.00020  -0.00020  -2.53588
   D38        1.61145  -0.00002   0.00000  -0.00079  -0.00079   1.61066
   D39       -0.49910   0.00001   0.00000  -0.00030  -0.00030  -0.49939
         Item               Value     Threshold  Converged?
 Maximum Force            0.000803     0.000450     NO 
 RMS     Force            0.000138     0.000300     YES
 Maximum Displacement     0.001172     0.001800     YES
 RMS     Displacement     0.000422     0.001200     YES
 Predicted change in Energy=-2.430302D-06
 GradGradGradGradGradGradGradGradGradGradGradGradGradGradGradGradGradGrad

                          Input orientation:                          
 ---------------------------------------------------------------------
 Center     Atomic      Atomic             Coordinates (Angstroms)
 Number     Number       Type             X           Y           Z
 ---------------------------------------------------------------------
      1          7           0        0.844031    0.456396    0.923313
      2          1           0        1.371626    0.495092    1.798171
      3          6           0        1.643389    1.125620   -0.112454
      4          1           0        2.000011    2.096549    0.243035
      5          1           0        0.986914    1.307537   -0.971154
      6          6           0        2.778675    0.153116   -0.504014
      7          1           0        3.688752    0.383939    0.058589
      8          1           0        3.030792    0.221571   -1.566522
      9          6           0        2.230669   -1.240112   -0.111888
     10          1           0        2.866105   -1.707113    0.647169
     11          1           0        2.185145   -1.928034   -0.961498
     12          6           0        0.830234   -0.941098    0.469081
     13          1           0        0.542061   -1.609297    1.285625
     14          1           0        0.068595   -1.027167   -0.314453
 ---------------------------------------------------------------------
                    Distance matrix (angstroms):
                    1          2          3          4          5
     1  N    0.000000
     2  H    1.022365   0.000000
     3  C    1.469574   2.030248   0.000000
     4  H    2.118766   2.319047   1.093734   0.000000
     5  H    2.081794   2.911569   1.096093   1.767247   0.000000
     6  C    2.423240   2.719704   1.545302   2.222911   2.182044
     7  H    2.974128   2.899581   2.182397   2.412239   3.035347
     8  H    3.322100   3.761490   2.203748   2.802239   2.389817
     9  C    2.423334   2.719782   2.437537   3.363403   2.962395
    10  H    2.974190   2.899651   3.177489   3.921898   3.903645
    11  H    3.322139   3.761532   3.215459   4.205049   3.450330
    12  C    1.469526   2.030327   2.295806   3.262939   2.674918
    13  H    2.118854   2.319339   3.263023   4.116541   3.714683
    14  H    2.081904   2.911759   2.674934   3.714668   2.593340
                    6          7          8          9         10
     6  C    0.000000
     7  H    1.094551   0.000000
     8  H    1.094153   1.760755   0.000000
     9  C    1.547629   2.189202   2.211939   0.000000
    10  H    2.189364   2.322858   2.940641   1.094547   0.000000
    11  H    2.211957   2.940515   2.387881   1.094142   1.760772
    12  C    2.437343   3.177318   3.215266   1.545365   2.182490
    13  H    3.363235   3.921768   4.204830   2.222777   2.412130
    14  H    2.962015   3.903321   3.449874   2.181958   3.035309
                   11         12         13         14
    11  H    0.000000
    12  C    2.203720   0.000000
    13  H    2.801941   1.093745   0.000000
    14  H    2.389563   1.096096   1.767284   0.000000
 Stoichiometry    C4H9N
 Framework group  C1[X(C4H9N)]
 Deg. of freedom    36
 Full point group                 C1      NOp   1
 Largest Abelian subgroup         C1      NOp   1
 Largest concise Abelian subgroup C1      NOp   1
                         Standard orientation:                         
 ---------------------------------------------------------------------
 Center     Atomic      Atomic             Coordinates (Angstroms)
 Number     Number       Type             X           Y           Z
 ---------------------------------------------------------------------
      1          7           0        0.003006   -1.268169   -0.215870
      2          1           0        0.003166   -1.308398   -1.237443
      3          6           0        1.149016   -0.448013    0.200845
      4          1           0        2.060073   -0.769716   -0.311734
      5          1           0        1.298193   -0.609038    1.274734
      6          6           0        0.771348    1.025489   -0.071399
      7          1           0        1.158184    1.344197   -1.044448
      8          1           0        1.189831    1.702825    0.679108
      9          6           0       -0.776277    1.021902   -0.071518
     10          1           0       -1.164667    1.338666   -1.044579
     11          1           0       -1.198043    1.697185    0.678984
     12          6           0       -1.146784   -0.453446    0.200924
     13          1           0       -2.056457   -0.779284   -0.311523
     14          1           0       -1.295141   -0.614849    1.274873
 ---------------------------------------------------------------------
 Rotational constants (GHZ):           6.8850347           6.6919823           3.9131422
 Standard basis: 6-31G(d) (6D, 7F)
 There are    93 symmetry adapted cartesian basis functions of A   symmetry.
 There are    93 symmetry adapted basis functions of A   symmetry.
    93 basis functions,   176 primitive gaussians,    93 cartesian basis functions
    20 alpha electrons       20 beta electrons
       nuclear repulsion energy       190.0070567425 Hartrees.
 NAtoms=   14 NActive=   14 NUniq=   14 SFac= 1.00D+00 NAtFMM=   60 NAOKFM=F Big=F
 Integral buffers will be    131072 words long.
 Raffenetti 1 integral format.
 Two-electron integral symmetry is turned on.
 One-electron integrals computed using PRISM.
 NBasis=    93 RedAO= T EigKep=  3.15D-03  NBF=    93
 NBsUse=    93 1.00D-06 EigRej= -1.00D+00 NBFU=    93
 Initial guess from the checkpoint file:  "PRLD.scan1.neg.chk"
 B after Tr=    -0.000000    0.000000   -0.000000
         Rot=    0.999988    0.000085   -0.000027   -0.004962 Ang=   0.57 deg.
 Keep R1 ints in memory in canonical form, NReq=10436318.
 Requested convergence on RMS density matrix=1.00D-08 within 128 cycles.
 Requested convergence on MAX density matrix=1.00D-06.
 Requested convergence on             energy=1.00D-06.
 No special actions if energy rises.
 SCF Done:  E(RHF) =  -211.143210229     A.U. after    7 cycles
            NFock=  7  Conv=0.88D-08     -V/T= 2.0015
 ExpMin= 1.61D-01 ExpMax= 4.17D+03 ExpMxC= 6.27D+02 IAcc=3 IRadAn=         5 AccDes= 0.00D+00
 HarFok:  IExCor=  205 AccDes= 0.00D+00 IRadAn=         5 IDoV=-2 UseB2=F ITyADJ=14
 ICtDFT= 12500011 ScaDFX=  1.000000  1.000000  1.000000  1.000000
 Range of M.O.s used for correlation:     6    93
 NBasis=    93 NAE=    20 NBE=    20 NFC=     5 NFV=     0
 NROrb=     88 NOA=    15 NOB=    15 NVA=    73 NVB=    73
 Fully direct method using O(ONN) memory.
 JobTyp=1 Pass  1:  I=   6 to  20 NPSUse=  1 ParTrn=F ParDer=F DoDerP=T.
 Spin components of T(2) and E(2):
     alpha-alpha T2 =       0.2790767606D-01 E2=     -0.8404936022D-01
     alpha-beta  T2 =       0.1679156702D+00 E2=     -0.5160424718D+00
     beta-beta   T2 =       0.2790767606D-01 E2=     -0.8404936022D-01
 ANorm=    0.1106223767D+01
 E2 =    -0.6841411923D+00 EUMP2 =    -0.21182735142158D+03
          IDoAtm=11111111111111
          Differentiating once with respect to electric field.
                with respect to dipole field.
          Differentiating once with respect to nuclear coordinates.
 Keep R1 ints in memory in canonical form, NReq=10438744.
          There are     1 degrees of freedom in the 1st order CPHF.  IDoFFX=0 NUNeed=     1.
 LinEq1:  Iter=  0 NonCon=     1 RMS=4.26D-03 Max=4.53D-02 NDo=     1
 AX will form     1 AO Fock derivatives at one time.
 LinEq1:  Iter=  1 NonCon=     1 RMS=1.43D-03 Max=1.40D-02 NDo=     1
 LinEq1:  Iter=  2 NonCon=     1 RMS=2.90D-04 Max=3.42D-03 NDo=     1
 LinEq1:  Iter=  3 NonCon=     1 RMS=5.59D-05 Max=4.10D-04 NDo=     1
 LinEq1:  Iter=  4 NonCon=     1 RMS=1.19D-05 Max=1.55D-04 NDo=     1
 LinEq1:  Iter=  5 NonCon=     1 RMS=4.50D-06 Max=4.00D-05 NDo=     1
 LinEq1:  Iter=  6 NonCon=     1 RMS=1.05D-06 Max=1.55D-05 NDo=     1
 LinEq1:  Iter=  7 NonCon=     1 RMS=1.92D-07 Max=1.83D-06 NDo=     1
 LinEq1:  Iter=  8 NonCon=     1 RMS=6.32D-08 Max=5.78D-07 NDo=     1
 LinEq1:  Iter=  9 NonCon=     1 RMS=1.37D-08 Max=1.25D-07 NDo=     1
 LinEq1:  Iter= 10 NonCon=     1 RMS=3.65D-09 Max=2.96D-08 NDo=     1
 LinEq1:  Iter= 11 NonCon=     1 RMS=6.11D-10 Max=7.96D-09 NDo=     1
 LinEq1:  Iter= 12 NonCon=     1 RMS=1.20D-10 Max=1.50D-09 NDo=     1
 LinEq1:  Iter= 13 NonCon=     0 RMS=1.90D-11 Max=1.76D-10 NDo=     1
 Linear equations converged to 1.000D-10 1.000D-09 after    13 iterations.
 End of Minotr F.D. properties file   721 does not exist.
 End of Minotr F.D. properties file   722 does not exist.
 End of Minotr F.D. properties file   788 does not exist.
 Calling FoFJK, ICntrl=  10002127 FMM=F ISym2X=0 I1Cent= 0 IOpClX= 0 NMat=1 NMatS=1 NMatT=0.
 ***** Axes restored to original set *****
 -------------------------------------------------------------------
 Center     Atomic                   Forces (Hartrees/Bohr)
 Number     Number              X              Y              Z
 -------------------------------------------------------------------
      1        7          -0.000045197    0.000037488    0.000027708
      2        1           0.000006483   -0.000017157    0.000010603
      3        6           0.000025787   -0.000045840   -0.000055052
      4        1           0.000001744   -0.000006474    0.000013537
      5        1          -0.000012449   -0.000006398   -0.000000913
      6        6           0.000009365    0.000060567    0.000006904
      7        1           0.000022052   -0.000011060   -0.000002248
      8        1           0.000002268   -0.000007647    0.000006514
      9        6          -0.000110487    0.000017130    0.000029877
     10        1           0.000030352    0.000007848   -0.000003392
     11        1           0.000015495    0.000002530   -0.000003804
     12        6           0.000085438   -0.000095582   -0.000051178
     13        1          -0.000013281    0.000030785    0.000013323
     14        1          -0.000017569    0.000033810    0.000008122
 -------------------------------------------------------------------
 Cartesian Forces:  Max     0.000110487 RMS     0.000035164

 GradGradGradGradGradGradGradGradGradGradGradGradGradGradGradGradGradGrad
 Berny optimization.
 Using GEDIIS/GDIIS optimizer.
 FormGI is forming the generalized inverse of G from B-inverse, IUseBI=4.
 Internal  Forces:  Max     0.000042706 RMS     0.000013073
 Search for a local minimum.
 Step number   2 out of a maximum of   90 on scan point     1 out of     7
 All quantities printed in internal units (Hartrees-Bohrs-Radians)
 Mixed Optimization -- En-DIIS/RFO-DIIS
 Swapping is turned off.
 Update second derivatives using D2CorX and points    1    2
 DE= -2.44D-06 DEPred=-2.43D-06 R= 1.00D+00
 TightC=F SS=  1.41D+00  RLast= 4.88D-03 DXNew= 5.0454D-01 1.4632D-02
 Trust test= 1.00D+00 RLast= 4.88D-03 DXMaxT set to 3.00D-01
 ITU=  1  0
     Eigenvalues ---    0.00565   0.01457   0.02311   0.02412   0.04342
     Eigenvalues ---    0.04620   0.04955   0.05364   0.05523   0.05750
     Eigenvalues ---    0.05905   0.06792   0.06895   0.08245   0.08781
     Eigenvalues ---    0.08923   0.09366   0.10996   0.11400   0.20466
     Eigenvalues ---    0.20681   0.26307   0.26850   0.27421   0.33425
     Eigenvalues ---    0.33856   0.34138   0.34225   0.34291   0.34297
     Eigenvalues ---    0.34335   0.34362   0.34365   0.34967   0.44081
     Eigenvalues --- 1000.000001000.000001000.000001000.000001000.00000
     Eigenvalues --- 1000.000001000.000001000.000001000.000001000.00000
     Eigenvalues --- 1000.000001000.000001000.000001000.000001000.00000
     Eigenvalues --- 1000.000001000.000001000.000001000.000001000.00000
     Eigenvalues --- 1000.000001000.000001000.000001000.000001000.00000
     Eigenvalues --- 1000.000001000.000001000.000001000.000001000.00000
     Eigenvalues --- 1000.000001000.000001000.000001000.000001000.00000
     Eigenvalues --- 1000.000001000.000001000.000001000.000001000.00000
     Eigenvalues --- 1000.000001000.000001000.000001000.000001000.00000
 En-DIIS/RFO-DIIS/Sim-DIIS IScMMF=       -3 using points:     2    1
 RFO step:  Lambda=-1.26524786D-07.
 DidBck=F Rises=F RFO-DIIS coefs:    0.99222    0.00778
 Iteration  1 RMS(Cart)=  0.00016169 RMS(Int)=  0.00000003
 Iteration  2 RMS(Cart)=  0.00000002 RMS(Int)=  0.00000002
 Iteration  1 RMS(Cart)=  0.00000000 RMS(Int)=  0.00000001
 Variable       Old X    -DE/DX   Delta X   Delta X   Delta X     New X
                                 (Linear)    (Quad)   (Total)
    R1        1.93199   0.00001   0.00001   0.00000   0.00001   1.93200
    R2        2.77709   0.00002  -0.00000   0.00007   0.00007   2.77716
    R3        2.77700   0.00001  -0.00001   0.00006   0.00005   2.77705
    R4        2.06686  -0.00000   0.00002  -0.00008  -0.00006   2.06679
    R5        2.07132   0.00001  -0.00001   0.00007   0.00006   2.07138
    R6        2.92020  -0.00003   0.00000  -0.00012  -0.00012   2.92008
    R7        2.06840   0.00001   0.00000   0.00003   0.00003   2.06844
    R8        2.06765  -0.00001  -0.00001   0.00001   0.00001   2.06766
    R9        2.92460   0.00001  -0.00000   0.00005   0.00005   2.92464
   R10        2.06839   0.00001  -0.00000   0.00005   0.00005   2.06844
   R11        2.06763   0.00000   0.00001  -0.00002  -0.00002   2.06761
   R12        2.92032  -0.00004   0.00001  -0.00018  -0.00017   2.92015
   R13        2.06688  -0.00001   0.00000  -0.00003  -0.00002   2.06685
   R14        2.07132   0.00000  -0.00000   0.00002   0.00002   2.07134
    A1        1.88092   0.00001  -0.00000   0.00008   0.00008   1.88100
    A2        1.88109  -0.00000   0.00000  -0.00014  -0.00014   1.88096
    A3        1.79293  -0.00002  -0.00000  -0.00014  -0.00014   1.79279
    A4        1.93107  -0.00001  -0.00000  -0.00013  -0.00013   1.93094
    A5        1.87755  -0.00001   0.00000  -0.00007  -0.00006   1.87748
    A6        1.86671   0.00002   0.00000   0.00006   0.00006   1.86678
    A7        1.87819   0.00001  -0.00000   0.00011   0.00010   1.87830
    A8        1.98393  -0.00001  -0.00000  -0.00004  -0.00005   1.98388
    A9        1.92405   0.00000   0.00001   0.00007   0.00007   1.92412
   A10        1.92612   0.00002   0.00000   0.00022   0.00023   1.92634
   A11        1.95624   0.00001  -0.00000   0.00007   0.00006   1.95630
   A12        1.81543  -0.00003  -0.00000  -0.00015  -0.00015   1.81528
   A13        1.86958  -0.00001   0.00000  -0.00004  -0.00004   1.86954
   A14        1.93267   0.00000   0.00000  -0.00001  -0.00001   1.93266
   A15        1.96488   0.00000   0.00000  -0.00009  -0.00008   1.96479
   A16        1.93290  -0.00002   0.00000  -0.00027  -0.00027   1.93263
   A17        1.96491  -0.00001   0.00000  -0.00010  -0.00010   1.96482
   A18        1.81517   0.00002   0.00000   0.00011   0.00011   1.81528
   A19        1.86962   0.00000   0.00000  -0.00006  -0.00006   1.86956
   A20        1.92617   0.00001  -0.00000   0.00018   0.00018   1.92635
   A21        1.95613   0.00000  -0.00000   0.00015   0.00015   1.95628
   A22        1.86680   0.00000  -0.00000  -0.00003  -0.00003   1.86677
   A23        1.93124  -0.00003  -0.00000  -0.00025  -0.00025   1.93099
   A24        1.87775  -0.00002  -0.00000  -0.00031  -0.00031   1.87743
   A25        1.98364   0.00002  -0.00000   0.00025   0.00025   1.98389
   A26        1.92385   0.00002   0.00001   0.00022   0.00023   1.92408
   A27        1.87824   0.00000   0.00000   0.00009   0.00009   1.87833
    D1       -0.85085  -0.00001   0.00000  -0.00033  -0.00033  -0.85118
    D2       -2.89795  -0.00000   0.00000  -0.00035  -0.00035  -2.89830
    D3        1.31840  -0.00002  -0.00001  -0.00042  -0.00043   1.31797
    D4       -2.83436   0.00000  -0.00000  -0.00015  -0.00015  -2.83451
    D5        1.40172   0.00001   0.00000  -0.00016  -0.00016   1.40156
    D6       -0.66511  -0.00000  -0.00001  -0.00024  -0.00024  -0.66536
    D7       -1.31812  -0.00000   0.00000   0.00012   0.00012  -1.31800
    D8        0.85094   0.00001  -0.00000   0.00025   0.00025   0.85119
    D9        2.89830  -0.00001  -0.00000   0.00004   0.00003   2.89834
   D10        0.66526  -0.00001   0.00000   0.00009   0.00009   0.66536
   D11        2.83433   0.00001  -0.00000   0.00022   0.00022   2.83455
   D12       -1.40149  -0.00002  -0.00000   0.00001   0.00001  -1.40149
   D13       -1.66524   0.00001   0.00001   0.00024   0.00024  -1.66500
   D14        2.53576  -0.00000   0.00001   0.00009   0.00009   2.53586
   D15        0.40830   0.00001   0.00001   0.00025   0.00026   0.40855
   D16        0.47130  -0.00000   0.00000   0.00009   0.00009   0.47139
   D17       -1.61088  -0.00001  -0.00000  -0.00006  -0.00006  -1.61094
   D18        2.54484  -0.00000  -0.00000   0.00010   0.00010   2.54495
   D19        2.58165   0.00001  -0.00000   0.00024   0.00024   2.58189
   D20        0.49946  -0.00000  -0.00000   0.00010   0.00010   0.49956
   D21       -1.62800   0.00001  -0.00000   0.00026   0.00026  -1.62774
   D22       -2.06893  -0.00002  -0.00000  -0.00028  -0.00028  -2.06921
   D23        2.12161   0.00000  -0.00001   0.00006   0.00005   2.12166
   D24        0.00015  -0.00000  -0.00000  -0.00014  -0.00014   0.00001
   D25        0.00012  -0.00001  -0.00000  -0.00010  -0.00011   0.00002
   D26       -2.09252   0.00002  -0.00001   0.00023   0.00022  -2.09230
   D27        2.06921   0.00001  -0.00000   0.00003   0.00003   2.06924
   D28        2.09253  -0.00001   0.00000  -0.00022  -0.00022   2.09231
   D29       -0.00012   0.00001  -0.00000   0.00012   0.00011  -0.00000
   D30       -2.12157   0.00000   0.00000  -0.00008  -0.00008  -2.12165
   D31       -0.40859  -0.00000  -0.00000   0.00000  -0.00000  -0.40859
   D32       -2.54523   0.00001   0.00000   0.00018   0.00018  -2.54505
   D33        1.62790  -0.00002   0.00000  -0.00027  -0.00027   1.62762
   D34        1.66510  -0.00001   0.00000  -0.00017  -0.00017   1.66493
   D35       -0.47154   0.00001   0.00001   0.00001   0.00001  -0.47153
   D36       -2.58160  -0.00002   0.00000  -0.00044  -0.00044  -2.58204
   D37       -2.53588   0.00000   0.00000  -0.00003  -0.00003  -2.53591
   D38        1.61066   0.00002   0.00001   0.00015   0.00015   1.61081
   D39       -0.49939  -0.00001   0.00000  -0.00031  -0.00030  -0.49970
         Item               Value     Threshold  Converged?
 Maximum Force            0.000043     0.000450     YES
 RMS     Force            0.000013     0.000300     YES
 Maximum Displacement     0.000674     0.001800     YES
 RMS     Displacement     0.000162     0.001200     YES
 Predicted change in Energy=-6.326539D-08
 Optimization completed.
    -- Stationary point found.
                           ----------------------------
                           !   Optimized Parameters   !
                           ! (Angstroms and Degrees)  !
 --------------------------                            --------------------------
 ! Name  Definition              Value          Derivative Info.                !
 --------------------------------------------------------------------------------
 ! R1    R(1,2)                  1.0224         -DE/DX =    0.0                 !
 ! R2    R(1,3)                  1.4696         -DE/DX =    0.0                 !
 ! R3    R(1,12)                 1.4695         -DE/DX =    0.0                 !
 ! R4    R(3,4)                  1.0937         -DE/DX =    0.0                 !
 ! R5    R(3,5)                  1.0961         -DE/DX =    0.0                 !
 ! R6    R(3,6)                  1.5453         -DE/DX =    0.0                 !
 ! R7    R(6,7)                  1.0946         -DE/DX =    0.0                 !
 ! R8    R(6,8)                  1.0942         -DE/DX =    0.0                 !
 ! R9    R(6,9)                  1.5476         -DE/DX =    0.0                 !
 ! R10   R(9,10)                 1.0945         -DE/DX =    0.0                 !
 ! R11   R(9,11)                 1.0941         -DE/DX =    0.0                 !
 ! R12   R(9,12)                 1.5454         -DE/DX =    0.0                 !
 ! R13   R(12,13)                1.0937         -DE/DX =    0.0                 !
 ! R14   R(12,14)                1.0961         -DE/DX =    0.0                 !
 ! A1    A(2,1,3)              107.769          -DE/DX =    0.0                 !
 ! A2    A(2,1,12)             107.7788         -DE/DX =    0.0                 !
 ! A3    A(3,1,12)             102.7275         -DE/DX =    0.0                 !
 ! A4    A(1,3,4)              110.6423         -DE/DX =    0.0                 !
 ! A5    A(1,3,5)              107.5755         -DE/DX =    0.0                 !
 ! A6    A(1,3,6)              106.9548         -DE/DX =    0.0                 !
 ! A7    A(4,3,5)              107.6126         -DE/DX =    0.0                 !
 ! A8    A(4,3,6)              113.6706         -DE/DX =    0.0                 !
 ! A9    A(5,3,6)              110.2398         -DE/DX =    0.0                 !
 ! A10   A(3,6,7)              110.3584         -DE/DX =    0.0                 !
 ! A11   A(3,6,8)              112.0842         -DE/DX =    0.0                 !
 ! A12   A(3,6,9)              104.0164         -DE/DX =    0.0                 !
 ! A13   A(7,6,8)              107.119          -DE/DX =    0.0                 !
 ! A14   A(7,6,9)              110.7337         -DE/DX =    0.0                 !
 ! A15   A(8,6,9)              112.5791         -DE/DX =    0.0                 !
 ! A16   A(6,9,10)             110.7467         -DE/DX =    0.0                 !
 ! A17   A(6,9,11)             112.5812         -DE/DX =    0.0                 !
 ! A18   A(6,9,12)             104.0018         -DE/DX =    0.0                 !
 ! A19   A(10,9,11)            107.1215         -DE/DX =    0.0                 !
 ! A20   A(10,9,12)            110.3616         -DE/DX =    0.0                 !
 ! A21   A(11,9,12)            112.0782         -DE/DX =    0.0                 !
 ! A22   A(1,12,9)             106.9599         -DE/DX =    0.0                 !
 ! A23   A(1,12,13)            110.6522         -DE/DX =    0.0                 !
 ! A24   A(1,12,14)            107.5871         -DE/DX =    0.0                 !
 ! A25   A(9,12,13)            113.6544         -DE/DX =    0.0                 !
 ! A26   A(9,12,14)            110.2285         -DE/DX =    0.0                 !
 ! A27   A(13,12,14)           107.615          -DE/DX =    0.0                 !
 ! D1    D(2,1,3,4)            -48.7502         -DE/DX =    0.0                 !
 ! D2    D(2,1,3,5)           -166.0403         -DE/DX =    0.0                 !
 ! D3    D(2,1,3,6)             75.5387         -DE/DX =    0.0                 !
 ! D4    D(12,1,3,4)          -162.397          -DE/DX =    0.0                 !
 ! D5    D(12,1,3,5)            80.3128         -DE/DX =    0.0                 !
 ! D6    D(12,1,3,6)           -38.1081         -DE/DX =    0.0                 !
 ! D7    D(2,1,12,9)           -75.5229         -DE/DX =    0.0                 !
 ! D8    D(2,1,12,13)           48.7554         -DE/DX =    0.0                 !
 ! D9    D(2,1,12,14)          166.0606         -DE/DX =    0.0                 !
 ! D10   D(3,1,12,9)            38.1168         -DE/DX =    0.0                 !
 ! D11   D(3,1,12,13)          162.3951         -DE/DX =    0.0                 !
 ! D12   D(3,1,12,14)          -80.2997         -DE/DX =    0.0                 !
 ! D13   D(1,3,6,7)            -95.4114         -DE/DX =    0.0                 !
 ! D14   D(1,3,6,8)            145.2884         -DE/DX =    0.0                 !
 ! D15   D(1,3,6,9)             23.3937         -DE/DX =    0.0                 !
 ! D16   D(4,3,6,7)             27.0036         -DE/DX =    0.0                 !
 ! D17   D(4,3,6,8)            -92.2965         -DE/DX =    0.0                 !
 ! D18   D(4,3,6,9)            145.8088         -DE/DX =    0.0                 !
 ! D19   D(5,3,6,7)            147.9174         -DE/DX =    0.0                 !
 ! D20   D(5,3,6,8)             28.6172         -DE/DX =    0.0                 !
 ! D21   D(5,3,6,9)            -93.2774         -DE/DX =    0.0                 !
 ! D22   D(3,6,9,10)          -118.541          -DE/DX =    0.0                 !
 ! D23   D(3,6,9,11)           121.5592         -DE/DX =    0.0                 !
 ! D24   D(3,6,9,12)             0.0088         -DE/DX =    0.0                 !
 ! D25   D(7,6,9,10)             0.007          -DE/DX =    0.0                 !
 ! D26   D(7,6,9,11)          -119.8928         -DE/DX =    0.0                 !
 ! D27   D(7,6,9,12)           118.5568         -DE/DX =    0.0                 !
 ! D28   D(8,6,9,10)           119.8931         -DE/DX =    0.0                 !
 ! D29   D(8,6,9,11)            -0.0068         -DE/DX =    0.0                 !
 ! D30   D(8,6,9,12)          -121.5571         -DE/DX =    0.0                 !
 ! D31   D(6,9,12,1)           -23.4104         -DE/DX =    0.0                 !
 ! D32   D(6,9,12,13)         -145.8312         -DE/DX =    0.0                 !
 ! D33   D(6,9,12,14)           93.2715         -DE/DX =    0.0                 !
 ! D34   D(10,9,12,1)           95.4033         -DE/DX =    0.0                 !
 ! D35   D(10,9,12,13)         -27.0174         -DE/DX =    0.0                 !
 ! D36   D(10,9,12,14)        -147.9147         -DE/DX =    0.0                 !
 ! D37   D(11,9,12,1)         -145.2951         -DE/DX =    0.0                 !
 ! D38   D(11,9,12,13)          92.2841         -DE/DX =    0.0                 !
 ! D39   D(11,9,12,14)         -28.6132         -DE/DX =    0.0                 !
 --------------------------------------------------------------------------------
 Iteration  1 RMS(Cart)=  0.01012025 RMS(Int)=  0.02647470
 Iteration  2 RMS(Cart)=  0.00210861 RMS(Int)=  0.02631699
 Iteration  3 RMS(Cart)=  0.00042356 RMS(Int)=  0.02630252
 Iteration  4 RMS(Cart)=  0.00008544 RMS(Int)=  0.02630031
 Iteration  5 RMS(Cart)=  0.00001725 RMS(Int)=  0.02629989
 Iteration  6 RMS(Cart)=  0.00000348 RMS(Int)=  0.02629981
 Iteration  7 RMS(Cart)=  0.00000070 RMS(Int)=  0.02629979
 Iteration  1 RMS(Cart)=  0.01029137 RMS(Int)=  0.02145098
 Iteration  2 RMS(Cart)=  0.00912360 RMS(Int)=  0.02284426
 Iteration  3 RMS(Cart)=  0.00742518 RMS(Int)=  0.02607970
 Iteration  4 RMS(Cart)=  0.00601709 RMS(Int)=  0.02962915
 Iteration  5 RMS(Cart)=  0.00485858 RMS(Int)=  0.03289461
 Iteration  6 RMS(Cart)=  0.00391158 RMS(Int)=  0.03570529
 Iteration  7 RMS(Cart)=  0.00314160 RMS(Int)=  0.03805080
 Iteration  8 RMS(Cart)=  0.00251830 RMS(Int)=  0.03997604
 Iteration  9 RMS(Cart)=  0.00201552 RMS(Int)=  0.04154101
 Iteration 10 RMS(Cart)=  0.00161109 RMS(Int)=  0.04280530
 Iteration 11 RMS(Cart)=  0.00128653 RMS(Int)=  0.04382249
 Iteration 12 RMS(Cart)=  0.00102653 RMS(Int)=  0.04463851
 Iteration 13 RMS(Cart)=  0.00081856 RMS(Int)=  0.04529182
 Iteration 14 RMS(Cart)=  0.00065238 RMS(Int)=  0.04581406
 Iteration 15 RMS(Cart)=  0.00051973 RMS(Int)=  0.04623106
 Iteration 16 RMS(Cart)=  0.00041392 RMS(Int)=  0.04656374
 Iteration 17 RMS(Cart)=  0.00032957 RMS(Int)=  0.04682898
 Iteration 18 RMS(Cart)=  0.00026235 RMS(Int)=  0.04704034
 Iteration 19 RMS(Cart)=  0.00020881 RMS(Int)=  0.04720870
 Iteration 20 RMS(Cart)=  0.00016617 RMS(Int)=  0.04734277
 Iteration 21 RMS(Cart)=  0.00013223 RMS(Int)=  0.04744951
 Iteration 22 RMS(Cart)=  0.00010521 RMS(Int)=  0.04753447
 Iteration 23 RMS(Cart)=  0.00008370 RMS(Int)=  0.04760209
 Iteration 24 RMS(Cart)=  0.00006659 RMS(Int)=  0.04765589
 Iteration 25 RMS(Cart)=  0.00005298 RMS(Int)=  0.04769871
 Iteration 26 RMS(Cart)=  0.00004214 RMS(Int)=  0.04773277
 Iteration 27 RMS(Cart)=  0.00003352 RMS(Int)=  0.04775987
 Iteration 28 RMS(Cart)=  0.00002667 RMS(Int)=  0.04778143
 Iteration 29 RMS(Cart)=  0.00002121 RMS(Int)=  0.04779858
 Iteration 30 RMS(Cart)=  0.00001687 RMS(Int)=  0.04781223
 Iteration 31 RMS(Cart)=  0.00001342 RMS(Int)=  0.04782308
 Iteration 32 RMS(Cart)=  0.00001068 RMS(Int)=  0.04783171
 Iteration 33 RMS(Cart)=  0.00000849 RMS(Int)=  0.04783858
 Iteration 34 RMS(Cart)=  0.00000676 RMS(Int)=  0.04784404
 Iteration 35 RMS(Cart)=  0.00000537 RMS(Int)=  0.04784839
 Iteration 36 RMS(Cart)=  0.00000427 RMS(Int)=  0.04785185
 Iteration 37 RMS(Cart)=  0.00000340 RMS(Int)=  0.04785459
 Iteration 38 RMS(Cart)=  0.00000270 RMS(Int)=  0.04785678
 Iteration 39 RMS(Cart)=  0.00000215 RMS(Int)=  0.04785852
 Iteration 40 RMS(Cart)=  0.00000171 RMS(Int)=  0.04785990
 Iteration 41 RMS(Cart)=  0.00000136 RMS(Int)=  0.04786100
 Iteration 42 RMS(Cart)=  0.00000108 RMS(Int)=  0.04786188
 Iteration 43 RMS(Cart)=  0.00000086 RMS(Int)=  0.04786258
 GradGradGradGradGradGradGradGradGradGradGradGradGradGradGradGradGradGrad

                          Input orientation:                          
 ---------------------------------------------------------------------
 Center     Atomic      Atomic             Coordinates (Angstroms)
 Number     Number       Type             X           Y           Z
 ---------------------------------------------------------------------
      1          7           0        0.853238    0.435279    1.006886
      2          1           0        1.355133    0.418239    1.897582
      3          6           0        1.641698    1.098482   -0.102116
      4          1           0        2.043023    2.065521    0.214444
      5          1           0        0.920751    1.280634   -0.907750
      6          6           0        2.765196    0.135664   -0.557432
      7          1           0        3.677257    0.418902   -0.022404
      8          1           0        3.004346    0.151818   -1.625109
      9          6           0        2.264694   -1.211145   -0.044561
     10          1           0        2.869100   -1.692879    0.730563
     11          1           0        2.231894   -1.897383   -0.896114
     12          6           0        0.828409   -0.885381    0.397906
     13          1           0        0.524404   -1.566919    1.197523
     14          1           0        0.087856   -0.963833   -0.406419
 ---------------------------------------------------------------------
                    Distance matrix (angstroms):
                    1          2          3          4          5
     1  N    0.000000
     2  H    1.022511   0.000000
     3  C    1.513735   2.131582   0.000000
     4  H    2.168235   2.453505   1.093818   0.000000
     5  H    2.094042   2.966867   1.096353   1.770554   0.000000
     6  C    2.488463   2.845210   1.548089   2.200380   2.199013
     7  H    3.005793   3.013073   2.147484   2.331989   3.020720
     8  H    3.411014   3.898748   2.252219   2.823182   2.475924
     9  C    2.410076   2.693347   2.392867   3.294353   2.959771
    10  H    2.944336   2.847955   3.160944   3.882570   3.914322
    11  H    3.311105   3.733035   3.154991   4.119905   3.437881
    12  C    1.454516   2.055697   2.201629   3.196368   2.530788
    13  H    2.037957   2.262972   3.168875   4.057988   3.563400
    14  H    2.130905   2.970612   2.600032   3.658570   2.445952
                    6          7          8          9         10
     6  C    0.000000
     7  H    1.094684   0.000000
     8  H    1.094252   1.758638   0.000000
     9  C    1.525593   2.157053   2.214245   0.000000
    10  H    2.239039   2.383211   2.995060   1.094620   0.000000
    11  H    2.128943   2.866639   2.308103   1.094139   1.758957
    12  C    2.388796   3.161290   3.146915   1.537795   2.219715
    13  H    3.316596   3.920739   4.131758   2.167478   2.394059
    14  H    2.898250   3.865647   3.351984   2.220525   3.091853
                   11         12         13         14
    11  H    0.000000
    12  C    2.160649   0.000000
    13  H    2.721772   1.093755   0.000000
    14  H    2.389187   1.096135   1.768309   0.000000
 Stoichiometry    C4H9N
 Framework group  C1[X(C4H9N)]
 Deg. of freedom    36
 Full point group                 C1      NOp   1
 Largest Abelian subgroup         C1      NOp   1
 Largest concise Abelian subgroup C1      NOp   1
                         Standard orientation:                         
 ---------------------------------------------------------------------
 Center     Atomic      Atomic             Coordinates (Angstroms)
 Number     Number       Type             X           Y           Z
 ---------------------------------------------------------------------
      1          7           0       -1.229677   -0.409072   -0.262732
      2          1           0       -1.311717   -0.356025   -1.280565
      3          6           0       -0.025004   -1.205226    0.191464
      4          1           0        0.035433   -2.168955   -0.322358
      5          1           0       -0.186921   -1.401844    1.257820
      6          6           0        1.248072   -0.354951   -0.038509
      7          1           0        1.673527   -0.654546   -1.001611
      8          1           0        2.039623   -0.468641    0.708424
      9          6           0        0.679597    1.056861   -0.143666
     10          1           0        0.791491    1.556729   -1.111035
     11          1           0        1.194338    1.676218    0.596995
     12          6           0       -0.782429    0.859645    0.290388
     13          1           0       -1.413416    1.618916   -0.180423
     14          1           0       -0.936027    0.923681    1.373817
 ---------------------------------------------------------------------
 Rotational constants (GHZ):           7.1505626           6.4961461           4.0016715
 Standard basis: 6-31G(d) (6D, 7F)
 There are    93 symmetry adapted cartesian basis functions of A   symmetry.
 There are    93 symmetry adapted basis functions of A   symmetry.
    93 basis functions,   176 primitive gaussians,    93 cartesian basis functions
    20 alpha electrons       20 beta electrons
       nuclear repulsion energy       190.5588615611 Hartrees.
 NAtoms=   14 NActive=   14 NUniq=   14 SFac= 1.00D+00 NAtFMM=   60 NAOKFM=F Big=F
 Integral buffers will be    131072 words long.
 Raffenetti 1 integral format.
 Two-electron integral symmetry is turned on.
 One-electron integrals computed using PRISM.
 NBasis=    93 RedAO= T EigKep=  2.96D-03  NBF=    93
 NBsUse=    93 1.00D-06 EigRej= -1.00D+00 NBFU=    93
 Initial guess from the checkpoint file:  "PRLD.scan1.neg.chk"
 B after Tr=    -0.000000   -0.000000   -0.000000
         Rot=    0.819328   -0.000211   -0.008415    0.573263 Ang= -69.96 deg.
 Keep R1 ints in memory in canonical form, NReq=10436387.
 Requested convergence on RMS density matrix=1.00D-08 within 128 cycles.
 Requested convergence on MAX density matrix=1.00D-06.
 Requested convergence on             energy=1.00D-06.
 No special actions if energy rises.
 SCF Done:  E(RHF) =  -211.128713444     A.U. after   11 cycles
            NFock= 11  Conv=0.94D-08     -V/T= 2.0013
 ExpMin= 1.61D-01 ExpMax= 4.17D+03 ExpMxC= 6.27D+02 IAcc=3 IRadAn=         5 AccDes= 0.00D+00
 HarFok:  IExCor=  205 AccDes= 0.00D+00 IRadAn=         5 IDoV=-2 UseB2=F ITyADJ=14
 ICtDFT= 12500011 ScaDFX=  1.000000  1.000000  1.000000  1.000000
 Range of M.O.s used for correlation:     6    93
 NBasis=    93 NAE=    20 NBE=    20 NFC=     5 NFV=     0
 NROrb=     88 NOA=    15 NOB=    15 NVA=    73 NVB=    73
 Fully direct method using O(ONN) memory.
 JobTyp=1 Pass  1:  I=   6 to  20 NPSUse=  1 ParTrn=F ParDer=F DoDerP=T.
 Spin components of T(2) and E(2):
     alpha-alpha T2 =       0.2809554614D-01 E2=     -0.8443788612D-01
     alpha-beta  T2 =       0.1687589614D+00 E2=     -0.5175291280D+00
     beta-beta   T2 =       0.2809554614D-01 E2=     -0.8443788612D-01
 ANorm=    0.1106774617D+01
 E2 =    -0.6864049003D+00 EUMP2 =    -0.21181511834415D+03
          IDoAtm=11111111111111
          Differentiating once with respect to electric field.
                with respect to dipole field.
          Differentiating once with respect to nuclear coordinates.
 Keep R1 ints in memory in canonical form, NReq=10438859.
          There are     1 degrees of freedom in the 1st order CPHF.  IDoFFX=0 NUNeed=     1.
 LinEq1:  Iter=  0 NonCon=     1 RMS=4.30D-03 Max=4.91D-02 NDo=     1
 AX will form     1 AO Fock derivatives at one time.
 LinEq1:  Iter=  1 NonCon=     1 RMS=1.47D-03 Max=1.13D-02 NDo=     1
 LinEq1:  Iter=  2 NonCon=     1 RMS=3.01D-04 Max=3.60D-03 NDo=     1
 LinEq1:  Iter=  3 NonCon=     1 RMS=6.24D-05 Max=5.14D-04 NDo=     1
 LinEq1:  Iter=  4 NonCon=     1 RMS=1.79D-05 Max=2.24D-04 NDo=     1
 LinEq1:  Iter=  5 NonCon=     1 RMS=6.99D-06 Max=6.54D-05 NDo=     1
 LinEq1:  Iter=  6 NonCon=     1 RMS=1.18D-06 Max=1.50D-05 NDo=     1
 LinEq1:  Iter=  7 NonCon=     1 RMS=3.16D-07 Max=2.68D-06 NDo=     1
 LinEq1:  Iter=  8 NonCon=     1 RMS=9.28D-08 Max=1.00D-06 NDo=     1
 LinEq1:  Iter=  9 NonCon=     1 RMS=1.56D-08 Max=1.47D-07 NDo=     1
 LinEq1:  Iter= 10 NonCon=     1 RMS=3.54D-09 Max=2.04D-08 NDo=     1
 LinEq1:  Iter= 11 NonCon=     1 RMS=6.86D-10 Max=7.60D-09 NDo=     1
 LinEq1:  Iter= 12 NonCon=     1 RMS=1.50D-10 Max=9.48D-10 NDo=     1
 LinEq1:  Iter= 13 NonCon=     0 RMS=3.44D-11 Max=2.60D-10 NDo=     1
 Linear equations converged to 1.000D-10 1.000D-09 after    13 iterations.
 End of Minotr F.D. properties file   721 does not exist.
 End of Minotr F.D. properties file   722 does not exist.
 End of Minotr F.D. properties file   788 does not exist.
 Calling FoFJK, ICntrl=  10002127 FMM=F ISym2X=0 I1Cent= 0 IOpClX= 0 NMat=1 NMatS=1 NMatT=0.
 ***** Axes restored to original set *****
 -------------------------------------------------------------------
 Center     Atomic                   Forces (Hartrees/Bohr)
 Number     Number              X              Y              Z
 -------------------------------------------------------------------
      1        7           0.005673390    0.018590298   -0.043616915
      2        1           0.006048393   -0.001416892   -0.006201670
      3        6          -0.002438490    0.015569641    0.014953414
      4        1          -0.002295667    0.001781197    0.000486445
      5        1           0.001017406   -0.000085595    0.001034428
      6        6           0.007831990    0.009784475    0.021769344
      7        1           0.002905725    0.000492757   -0.002725689
      8        1          -0.005406757    0.001144942    0.000461128
      9        6          -0.013502070   -0.012296020   -0.030222689
     10        1          -0.001542892    0.006527550    0.002464712
     11        1           0.001529796   -0.007631723    0.002577671
     12        6           0.002597973   -0.030529995    0.043650409
     13        1          -0.006014053   -0.008468290   -0.003927610
     14        1           0.003595258    0.006537656   -0.000702978
 -------------------------------------------------------------------
 Cartesian Forces:  Max     0.043650409 RMS     0.013720630

 GradGradGradGradGradGradGradGradGradGradGradGradGradGradGradGradGradGrad
 Berny optimization.
 FormGI is forming the generalized inverse of G from B-inverse, IUseBI=4.
 Internal  Forces:  Max     0.025825036 RMS     0.006709284
 Search for a local minimum.
 Step number   1 out of a maximum of   90 on scan point     2 out of     7
 All quantities printed in internal units (Hartrees-Bohrs-Radians)
 Mixed Optimization -- RFO/linear search
 Second derivative matrix not updated -- first step.
 ITU=  0
     Eigenvalues ---    0.00576   0.01457   0.02272   0.02482   0.04184
     Eigenvalues ---    0.04734   0.04930   0.05360   0.05405   0.05714
     Eigenvalues ---    0.06012   0.06577   0.06647   0.07909   0.08832
     Eigenvalues ---    0.09016   0.09493   0.10998   0.11362   0.19643
     Eigenvalues ---    0.19974   0.26041   0.26777   0.27324   0.32901
     Eigenvalues ---    0.33765   0.34137   0.34225   0.34292   0.34296
     Eigenvalues ---    0.34339   0.34364   0.34367   0.34972   0.44081
     Eigenvalues --- 1000.000001000.000001000.000001000.000001000.00000
     Eigenvalues --- 1000.000001000.000001000.000001000.000001000.00000
     Eigenvalues --- 1000.000001000.000001000.000001000.000001000.00000
     Eigenvalues --- 1000.000001000.000001000.000001000.000001000.00000
     Eigenvalues --- 1000.000001000.000001000.000001000.000001000.00000
     Eigenvalues --- 1000.000001000.000001000.000001000.000001000.00000
     Eigenvalues --- 1000.000001000.000001000.000001000.000001000.00000
     Eigenvalues --- 1000.000001000.000001000.000001000.000001000.00000
     Eigenvalues --- 1000.000001000.000001000.000001000.000001000.00000
 RFO step:  Lambda=-1.42600826D-02 EMin= 5.75838155D-03
 Linear search not attempted -- first point.
 Iteration  1 RMS(Cart)=  0.05825408 RMS(Int)=  0.00188568
 Iteration  2 RMS(Cart)=  0.00185575 RMS(Int)=  0.00082931
 Iteration  3 RMS(Cart)=  0.00000107 RMS(Int)=  0.00082931
 Iteration  4 RMS(Cart)=  0.00000000 RMS(Int)=  0.00082931
 Iteration  1 RMS(Cart)=  0.00003217 RMS(Int)=  0.00005776
 Iteration  2 RMS(Cart)=  0.00002584 RMS(Int)=  0.00006215
[...]
           A26        110.22855 110.42330 110.95378 112.63227 114.78553
           A27        107.61496 107.92408 108.25243 108.28543 107.62060
           D1         -48.75019 -37.57595 -29.02000 -32.36268 -34.24088
           D2        -166.04030-154.42258-146.38144-149.95882-152.46682
           D3          75.53872  86.34133  93.27577  89.14881  86.12662
           D4        -162.39704-150.86441-141.20967-142.62140-142.76585
           D5          80.31285  92.28897 101.42888  99.78246  99.00821
           D6         -38.10813 -26.94713 -18.91391 -21.10991 -22.39835
           D7         -75.52288 -73.05864 -68.29326 -57.54633 -49.19925
           D8          48.75545  50.84525  54.82572  63.95078  70.48636
           D9         166.06060 168.84848 173.77399-176.29377-169.83372
           D10         38.11678  40.74433  44.75023  53.46983  59.19869
           D11        162.39511 164.64822 167.86921 174.96694 178.88430
           D12        -80.29974 -77.34855 -73.18253 -65.27760 -61.43578
           D13        -95.41142-118.04833-135.71226-139.29965-141.66503
           D14        145.28840 122.33892 103.34339  98.00174  94.09830
           D15         23.39373   3.24810 -13.39938 -18.36603 -22.50820
           D16         27.00364   3.88485 -14.74218 -18.15101 -20.25938
           D17        -92.29653-115.72789-135.68652-140.84962-144.49605
           D18        145.80879 125.18128 107.57071 102.78260  98.89745
           D19        147.91740 124.06089 105.43665 102.43576 101.26625
           D20         28.61723   4.44815 -15.50770 -20.26285 -22.97042
           D21        -93.27744-114.64268-132.25047-136.63063-139.57692
           D22       -118.54095 -95.73985 -76.71376 -67.42636 -62.27983
           D23        121.55919 143.52457 160.53091 168.26185 172.67923
           D24          0.00881  20.58394  38.76349  48.18448  54.28109
           D25          0.00701  25.71550  44.32979  49.80854  49.31305
           D26       -119.89285 -95.02009 -78.42555 -74.50325 -75.72789
           D27        118.55677 142.03929 159.80704 165.41938 165.87397
           D28        119.89310 145.34091 165.75832 175.10371-179.17068
           D29         -0.00675  24.60532  43.00298  50.79191  55.78838
           D30       -121.55714 -98.33530 -78.76443 -69.28545 -62.60975
           D31        -23.41042 -38.40981 -53.40985 -68.40988 -83.40987
           D32       -145.83118-160.01230-173.41729 173.38454 159.59478
           D33         93.27154  78.14913  63.34390  48.67281  34.63918
           D34         95.40333  78.96548  63.77265  49.25237  34.36278
           D35        -27.01742 -42.63701 -56.23478 -68.95322 -82.63256
           D36       -147.91471-164.47558-179.47360 166.33505 152.41183
           D37       -145.29514-160.82979-173.85781 173.28430 159.51208
           D38         92.28411  77.56772  66.13475  55.07871  42.51674
           D39        -28.61318 -44.27085 -57.10406 -69.63302 -82.43886
                           6         7
     Eigenvalues --    -0.69683  -0.68654
           R1           1.01765   1.02021
           R2           1.68626   1.41592
           R3           1.45347   1.43593
           R4           1.09433   1.08893
           R5           1.09044   1.09182
           R6           1.83804   3.69335
           R7           1.09514   1.08861
           R8           1.08386   1.08796
           R9           1.49051   1.46938
           R10          1.08414   1.09401
           R11          1.10403   1.09565
           R12          1.54822   1.58992
           R13          1.10790   1.09513
           R14          1.08256   1.09353
           A1         106.78011 112.32990
           A2         108.21006 111.86860
           A3          82.85758 117.48296
           A4         112.32663 113.41665
           A5         104.47161 112.66824
           A6         107.39441  71.05662
           A7         110.93429 115.62744
           A8         107.90338 148.45673
           A9         113.81801  88.31329
           A10        107.31140  73.28340
           A11        114.52540 124.44726
           A12         82.53496  58.03506
           A13        112.26392 116.85799
           A14        119.13803 119.53168
           A15        117.06324 119.46372
           A16        114.40473 110.72080
           A17        114.03815 110.41194
           A18         91.21431 111.30843
           A19        107.99440 108.69083
           A20        114.66549 107.75175
           A21        114.01763 107.84816
           A22         97.73692 112.80091
           A23        110.58235 108.80495
           A24        111.98073 107.83030
           A25        112.86020 109.38653
           A26        116.74292 110.07563
           A27        106.80254 107.80585
           D1         -34.37819 -37.18694
           D2        -154.70292-170.94987
           D3          84.10527 109.24955
           D4        -141.30604-169.06604
           D5          98.36924  57.17103
           D6         -22.82258 -22.62955
           D7         -42.91397 -57.71503
           D8          75.10761  63.85435
           D9        -165.90846-179.47484
           D10         62.45737  74.37222
           D11       -179.52106-164.05840
           D12        -60.53713 -47.38759
           D13       -144.28603-167.84054
           D14         90.37483  80.68928
           D15        -26.02186 -25.27498
           D16        -22.98367 -63.71617
           D17       -148.32281-175.18635
           D18         95.28050  78.84940
           D19        100.59221  77.46707
           D20        -24.74693 -34.00311
           D21       -141.14362-139.96737
           D22        -60.27533 -70.72679
           D23        174.70762 168.85214
           D24         57.62834  49.10461
           D25         45.42135 -28.72985
           D26        -79.59569-149.15092
           D27        163.32502  91.10155
           D28       -174.05212 174.86379
           D29         60.93084  54.44272
           D30        -56.14844 -65.30480
           D31        -98.40996-113.41019
           D32        145.33909 125.35022
           D33         21.02505   7.07236
           D34         19.26787   8.16609
           D35        -96.98308-113.07349
           D36        138.70288 128.64865
           D37        144.49286 125.33254
           D38         28.24191   4.09295
           D39        -96.07213-114.18491
 GradGradGradGradGradGradGradGradGradGradGradGradGradGradGradGradGradGrad

                          Input orientation:                          
 ---------------------------------------------------------------------
 Center     Atomic      Atomic             Coordinates (Angstroms)
 Number     Number       Type             X           Y           Z
 ---------------------------------------------------------------------
      1          7           0        0.880831    0.374857    1.111442
      2          1           0        1.214393    0.078794    2.028995
      3          6           0        1.352645    1.661969    0.757077
      4          1           0        1.400799    2.351942    1.598137
      5          1           0        0.877391    2.050485   -0.145836
      6          6           0        3.044374   -0.856894   -1.348679
      7          1           0        3.580215    0.080132   -1.489844
      8          1           0        2.607385   -1.311596   -2.235219
      9          6           0        2.501414   -1.188280   -0.024124
     10          1           0        3.100256   -0.726295    0.766336
     11          1           0        2.497891   -2.273478    0.126839
     12          6           0        1.006875   -0.669440    0.133970
     13          1           0        0.360921   -1.504701    0.424457
     14          1           0        0.641610   -0.280494   -0.820550
 ---------------------------------------------------------------------
                    Distance matrix (angstroms):
                    1          2          3          4          5
     1  N    0.000000
     2  H    1.020207   0.000000
     3  C    1.415924   2.035518   0.000000
     4  H    2.101453   2.321118   1.088928   0.000000
     5  H    2.094873   2.954832   1.091817   1.845610   0.000000
     6  C    3.500046   3.953862   3.693349   4.656361   3.820406
     7  H    3.760350   4.240206   3.537362   4.409831   3.604707
     8  H    4.126167   4.696502   4.401170   5.438013   4.319953
     9  C    2.521745   2.734447   3.170783   4.046759   3.625172
    10  H    2.501496   2.408102   2.959398   3.613253   3.672016
    11  H    3.255458   3.286145   4.146870   4.976228   4.625693
    12  C    1.435929   2.047935   2.437885   3.380489   2.737344
    13  H    2.067605   2.410480   3.334959   4.163240   3.637489
    14  H    2.054094   2.928665   2.601469   3.654605   2.438093
                    6          7          8          9         10
     6  C    0.000000
     7  H    1.088610   0.000000
     8  H    1.087964   1.854424   0.000000
     9  C    1.469377   2.218337   2.217065   0.000000
    10  H    2.119779   2.443570   3.097552   1.094015   0.000000
    11  H    2.117193   3.053616   2.552748   1.095653   1.779206
    12  C    2.526814   3.133802   2.930368   1.589917   2.187547
    13  H    3.280943   4.066953   3.486799   2.209764   2.868231
    14  H    2.526743   3.035360   2.632248   2.217485   2.960048
                   11         12         13         14
    11  H    0.000000
    12  C    2.190005   0.000000
    13  H    2.290466   1.095126   0.000000
    14  H    2.883628   1.093529   1.768478   0.000000
 Stoichiometry    C4H9N
 Framework group  C1[X(C4H9N)]
 Deg. of freedom    36
 Full point group                 C1      NOp   1
 Largest Abelian subgroup         C1      NOp   1
 Largest concise Abelian subgroup C1      NOp   1
                         Standard orientation:                         
 ---------------------------------------------------------------------
 Center     Atomic      Atomic             Coordinates (Angstroms)
 Number     Number       Type             X           Y           Z
 ---------------------------------------------------------------------
      1          7           0       -1.320240    0.476033   -0.046291
      2          1           0       -1.475167    0.932059   -0.945657
      3          6           0       -1.728364   -0.879780   -0.053208
      4          1           0       -2.630612   -1.057153   -0.636518
      5          1           0       -1.713512   -1.328764    0.941908
      6          6           0        1.960066   -0.738574    0.074727
      7          1           0        1.693768   -1.770185   -0.148738
      8          1           0        2.538259   -0.565220    0.979883
      9          6           0        1.158914    0.355215   -0.491710
     10          1           0        0.711335    0.054432   -1.443588
     11          1           0        1.784265    1.238730   -0.661391
     12          6           0       -0.021169    0.774303    0.487885
     13          1           0        0.038957    1.848819    0.690618
     14          1           0        0.077703    0.248068    1.441356
 ---------------------------------------------------------------------
 Rotational constants (GHZ):           9.3267742           3.1218451           2.6911868

 **********************************************************************

            Population analysis using the SCF density.

 **********************************************************************

 Orbital symmetries:
       Occupied  (A) (A) (A) (A) (A) (A) (A) (A) (A) (A) (A) (A)
                 (A) (A) (A) (A) (A) (A) (A) (A)
       Virtual   (A) (A) (A) (A) (A) (A) (A) (A) (A) (A) (A) (A)
                 (A) (A) (A) (A) (A) (A) (A) (A) (A) (A) (A) (A)
                 (A) (A) (A) (A) (A) (A) (A) (A) (A) (A) (A) (A)
                 (A) (A) (A) (A) (A) (A) (A) (A) (A) (A) (A) (A)
                 (A) (A) (A) (A) (A) (A) (A) (A) (A) (A) (A) (A)
                 (A) (A) (A) (A) (A) (A) (A) (A) (A) (A) (A) (A)
                 (A)
 The electronic state is 1-A.
 Alpha  occ. eigenvalues --  -15.62616 -11.27801 -11.26464 -11.22400 -11.19936
 Alpha  occ. eigenvalues --   -1.25046  -1.03098  -0.92908  -0.84619  -0.78591
 Alpha  occ. eigenvalues --   -0.69176  -0.62971  -0.60832  -0.56515  -0.55532
 Alpha  occ. eigenvalues --   -0.54411  -0.49384  -0.47190  -0.43030  -0.17645
 Alpha virt. eigenvalues --    0.02570   0.21670   0.26512   0.27008   0.27935
 Alpha virt. eigenvalues --    0.30118   0.31962   0.33559   0.34096   0.37035
 Alpha virt. eigenvalues --    0.40476   0.41739   0.46685   0.50226   0.71638
 Alpha virt. eigenvalues --    0.74161   0.76480   0.77533   0.80168   0.83773
 Alpha virt. eigenvalues --    0.86994   0.88545   0.90268   0.91456   0.96907
 Alpha virt. eigenvalues --    0.97969   1.00605   1.07206   1.10401   1.12689
 Alpha virt. eigenvalues --    1.14148   1.16009   1.17116   1.18315   1.20557
 Alpha virt. eigenvalues --    1.23259   1.23944   1.24741   1.28488   1.38215
 Alpha virt. eigenvalues --    1.43977   1.66302   1.72882   1.75008   1.81580
 Alpha virt. eigenvalues --    1.93041   2.01181   2.08190   2.12234   2.15815
 Alpha virt. eigenvalues --    2.20904   2.27512   2.31014   2.37952   2.38563
 Alpha virt. eigenvalues --    2.42508   2.44450   2.53912   2.57292   2.64081
 Alpha virt. eigenvalues --    2.72262   2.76495   2.81054   2.86061   2.92758
 Alpha virt. eigenvalues --    3.05390   3.06733   3.10214   4.28225   4.55304
 Alpha virt. eigenvalues --    4.58513   4.74117   4.91862
          Condensed to atoms (all electrons):
               1          2          3          4          5          6
     1  N    6.914767   0.323007   0.306174  -0.037583  -0.041829  -0.007590
     2  H    0.323007   0.362031  -0.031039  -0.004461   0.003720  -0.000193
     3  C    0.306174  -0.031039   5.248372   0.394326   0.387710   0.028179
     4  H   -0.037583  -0.004461   0.394326   0.492120  -0.030977  -0.000049
     5  H   -0.041829   0.003720   0.387710  -0.030977   0.493821  -0.001803
     6  C   -0.007590  -0.000193   0.028179  -0.000049  -0.001803   5.381777
     7  H   -0.000645  -0.000004   0.004058   0.000003  -0.000196   0.386932
     8  H   -0.000017   0.000003   0.000153  -0.000000  -0.000015   0.390878
     9  C   -0.059082  -0.001787  -0.001507  -0.000126  -0.000548   0.454287
    10  H   -0.010665   0.002231   0.013617  -0.000196  -0.000159  -0.036503
    11  H    0.001307  -0.000021   0.001447   0.000000  -0.000030  -0.048409
    12  C    0.274143  -0.031377  -0.099687   0.003854  -0.000663  -0.091008
    13  H   -0.031932  -0.002937   0.005608  -0.000148  -0.000345   0.006661
    14  H   -0.039281   0.004129  -0.002676  -0.000030   0.002458  -0.004334
               7          8          9         10         11         12
     1  N   -0.000645  -0.000017  -0.059082  -0.010665   0.001307   0.274143
     2  H   -0.000004   0.000003  -0.001787   0.002231  -0.000021  -0.031377
     3  C    0.004058   0.000153  -0.001507   0.013617   0.001447  -0.099687
     4  H    0.000003  -0.000000  -0.000126  -0.000196   0.000000   0.003854
     5  H   -0.000196  -0.000015  -0.000548  -0.000159  -0.000030  -0.000663
     6  C    0.386932   0.390878   0.454287  -0.036503  -0.048409  -0.091008
     7  H    0.513629  -0.028982  -0.040534  -0.002155   0.004000  -0.001297
     8  H   -0.028982   0.531276  -0.044678   0.003466  -0.001043  -0.003276
     9  C   -0.040534  -0.044678   5.103790   0.397111   0.390784   0.208554
    10  H   -0.002155   0.003466   0.397111   0.545656  -0.017208  -0.065653
    11  H    0.004000  -0.001043   0.390784  -0.017208   0.563879  -0.066078
    12  C   -0.001297  -0.003276   0.208554  -0.065653  -0.066078   5.227627
    13  H    0.000026   0.000117  -0.033856   0.003668   0.000680   0.363996
    14  H    0.000709   0.001616  -0.037346   0.002691   0.002576   0.405301
              13         14
     1  N   -0.031932  -0.039281
     2  H   -0.002937   0.004129
     3  C    0.005608  -0.002676
     4  H   -0.000148  -0.000030
     5  H   -0.000345   0.002458
     6  C    0.006661  -0.004334
     7  H    0.000026   0.000709
     8  H    0.000117   0.001616
     9  C   -0.033856  -0.037346
    10  H    0.003668   0.002691
    11  H    0.000680   0.002576
    12  C    0.363996   0.405301
    13  H    0.539865  -0.026352
    14  H   -0.026352   0.497657
 Mulliken charges:
               1
     1  N   -0.590773
     2  H    0.376699
     3  C   -0.254735
     4  H    0.183265
     5  H    0.188857
     6  C   -0.458824
     7  H    0.164457
     8  H    0.150502
     9  C   -0.335062
    10  H    0.164099
    11  H    0.168118
    12  C   -0.124436
    13  H    0.174950
    14  H    0.192882
 Sum of Mulliken charges =  -0.00000
 Mulliken charges with hydrogens summed into heavy atoms:
               1
     1  N   -0.214074
     3  C    0.117387
     6  C   -0.143865
     9  C   -0.002845
    12  C    0.243397
 Electronic spatial extent (au):  <R**2>=            516.3053
 Charge=             -0.0000 electrons
 Dipole moment (field-independent basis, Debye):
    X=             -2.2729    Y=              1.3858    Z=             -0.1696  Tot=              2.6674
 Quadrupole moment (field-independent basis, Debye-Ang):
   XX=            -36.5372   YY=            -32.7536   ZZ=            -31.7366
   XY=              2.3487   XZ=              3.4899   YZ=             -1.9245
 Traceless Quadrupole moment (field-independent basis, Debye-Ang):
   XX=             -2.8614   YY=              0.9222   ZZ=              1.9392
   XY=              2.3487   XZ=              3.4899   YZ=             -1.9245
 Octapole moment (field-independent basis, Debye-Ang**2):
  XXX=            -22.1511  YYY=              5.5721  ZZZ=              0.0145  XYY=             -2.8284
  XXY=              1.6209  XXZ=             -0.8314  XZZ=             -4.4589  YZZ=              1.9879
  YYZ=             -0.1834  XYZ=              2.2913
 Hexadecapole moment (field-independent basis, Debye-Ang**3):
 XXXX=           -500.1864 YYYY=           -157.2226 ZZZZ=            -81.2970 XXXY=             21.7544
 XXXZ=             27.3944 YYYX=             -0.1632 YYYZ=             -2.7896 ZZZX=              5.0463
 ZZZY=             -3.9728 XXYY=           -103.4265 XXZZ=            -88.9262 YYZZ=            -40.4282
 XXYZ=             -6.3087 YYXZ=              1.3432 ZZXY=              0.0542
 N-N= 1.746833220237D+02 E-N=-8.404254111184D+02  KE= 2.104343326434D+02
 1\1\GINC-C403-133\Scan\RMP2-FC\6-31G(d)\C4H9N1\TG455515\02-Apr-2021\0\
 \# opt=modredundant MP2/6-31g(d) Geom=PrintInputOrient\\PRLD Dihedral/
 Improper Scan\\0,1\N,0.8808307027,0.3748567458,1.1114415803\H,1.214393
 2435,0.0787939874,2.0289953771\C,1.3526449799,1.6619692273,0.757076645
 2\H,1.4007985101,2.3519418608,1.5981372457\H,0.8773905386,2.0504854317
 ,-0.1458364387\C,3.044373934,-0.8568942481,-1.3486788344\H,3.580215360
 8,0.0801320588,-1.489844485\H,2.607385419,-1.3115960469,-2.2352189747\
 C,2.5014135243,-1.1882804999,-0.0241239138\H,3.1002559342,-0.726295431
 9,0.7663355698\H,2.497891182,-2.2734781646,0.1268386921\C,1.0068750809
 ,-0.669439511,0.133970293\H,0.3609211685,-1.5047011435,0.4244574243\H,
 0.641610021,-0.2804942356,-0.820550217\\Version=ES64L-G16RevA.03\State
 =1-A\HF=-211.1432102,-211.1428727,-211.1372596,-211.114055,-211.065,-2
 10.9928391,-210.9138494\MP2=-211.8273514,-211.8272594,-211.8229889,-21
 1.8030698,-211.7600429,-211.6968297,-211.6865394\RMSD=8.844e-09,6.636e
 -09,4.987e-09,7.559e-09,6.545e-09,8.393e-09,6.509e-09\PG=C01 [X(C4H9N1
 )]\\@


 YOU KNOW YOU'VE SPOKEN TOO LONG WHEN THE AUDIENCE STOPS LOOKING AT
 THEIR WATCHES AND STARTS SHAKING THEM.
 Job cpu time:       0 days  0 hours 28 minutes 10.0 seconds.
 Elapsed time:       0 days  0 hours 27 minutes 48.9 seconds.
 File lengths (MBytes):  RWF=     10 Int=      0 D2E=      0 Chk=      3 Scr=      1
 Normal termination of Gaussian 16 at Fri Apr  2 19:24:46 2021.
