 Entering Gaussian System, Link 0=g16
 Initial command:
 /home1/apps/gaussian/16rA.03/g16/l1.exe "/tmp/Gau-205521.inp" -scrdir="/tmp/"
 Entering Link 1 = /home1/apps/gaussian/16rA.03/g16/l1.exe PID=    205522.
  
 Copyright (c) 1988,1990,1992,1993,1995,1998,2003,2009,2016,
            Gaussian, Inc.  All Rights Reserved.
  
 This is part of the Gaussian(R) 16 program.  It is based on
 the Gaussian(R) 09 system (copyright 2009, Gaussian, Inc.),
 the Gaussian(R) 03 system (copyright 2003, Gaussian, Inc.),
 the Gaussian(R) 98 system (copyright 1998, Gaussian, Inc.),
 the Gaussian(R) 94 system (copyright 1995, Gaussian, Inc.),
 the Gaussian 92(TM) system (copyright 1992, Gaussian, Inc.),
 the Gaussian 90(TM) system (copyright 1990, Gaussian, Inc.),
 the Gaussian 88(TM) system (copyright 1988, Gaussian, Inc.),
 the Gaussian 86(TM) system (copyright 1986, Carnegie Mellon
 University), and the Gaussian 82(TM) system (copyright 1983,
 Carnegie Mellon University). Gaussian is a federally registered
 trademark of Gaussian, Inc.
  
 This software contains proprietary and confidential information,
 including trade secrets, belonging to Gaussian, Inc.
  
 This software is provided under written license and may be
 used, copied, transmitted, or stored only in accord with that
 written license.
  
 The following legend is applicable only to US Government
 contracts under FAR:
  
                    RESTRICTED RIGHTS LEGEND
  
 Use, reproduction and disclosure by the US Government is
 subject to restrictions as set forth in subparagraphs (a)
 and (c) of the Commercial Computer Software - Restricted
 Rights clause in FAR 52.227-19.
  
 Gaussian, Inc.
 340 Quinnipiac St., Bldg. 40, Wallingford CT 06492
  
  
 ---------------------------------------------------------------
 Warning -- This program may not be used in any manner that
 competes with the business of Gaussian, Inc. or will provide
 assistance to any competitor of Gaussian, Inc.  The licensee
 of this program is prohibited from giving any competitor of
 Gaussian, Inc. access to this program.  By using this program,
 the user acknowledges that Gaussian, Inc. is engaged in the
 business of creating and licensing software in the field of
 computational chemistry and represents and warrants to the
 licensee that it is not a competitor of Gaussian, Inc. and that
 it will not use this program in any manner prohibited above.
 ---------------------------------------------------------------
  

 Cite this work as:
 Gaussian 16, Revision A.03,
 M. J. Frisch, G. W. Trucks, H. B. Schlegel, G. E. Scuseria, 
 M. A. Robb, J. R. Cheeseman, G. Scalmani, V. Barone, 
 G. A. Petersson, H. Nakatsuji, X. Li, M. Caricato, A. V. Marenich, 
 J. Bloino, B. G. Janesko, R. Gomperts, B. Mennucci, H. P. Hratchian, 
 J. V. Ortiz, A. F. Izmaylov, J. L. Sonnenberg, D. Williams-Young, 
 F. Ding, F. Lipparini, F. Egidi, J. Goings, B. Peng, A. Petrone, 
 T. Henderson, D. Ranasinghe, V. G. Zakrzewski, J. Gao, N. Rega, 
 G. Zheng, W. Liang, M. Hada, M. Ehara, K. Toyota, R. Fukuda, 
 J. Hasegawa, M. Ishida, T. Nakajima, Y. Honda, O. Kitao, H. Nakai, 
 T. Vreven, K. Throssell, J. A. Montgomery, Jr., J. E. Peralta, 
 F. Ogliaro, M. J. Bearpark, J. J. Heyd, E. N. Brothers, K. N. Kudin, 
 V. N. Staroverov, T. A. Keith, R. Kobayashi, J. Normand, 
 K. Raghavachari, A. P. Rendell, J. C. Burant, S. S. Iyengar, 
 J. Tomasi, M. Cossi, J. M. Millam, M. Klene, C. Adamo, R. Cammi, 
 J. W. Ochterski, R. L. Martin, K. Morokuma, O. Farkas, 
 J. B. Foresman, and D. J. Fox, Gaussian, Inc., Wallingford CT, 2016.
 
 ******************************************
 Gaussian 16:  ES64L-G16RevA.03 25-Dec-2016
                 2-Apr-2021 
 ******************************************
 %chk=PRLD.scan5.pos.chk
 %nproc=1
 Will use up to    1 processors via shared memory.
 %mem=1GB
 -----------------------------------------------------
 # opt=modredundant MP2/6-31g(d) Geom=PrintInputOrient
 -----------------------------------------------------
 1/18=120,19=15,38=1/1,3;
 2/9=2110,12=2,17=6,18=5,40=1/2;
 3/5=1,6=6,7=1,11=9,25=1,30=1,71=1/1,2,3;
 4//1;
 5/5=2,38=5/2;
 8/6=4,10=2/1;
 9/15=2,16=-3/6;
 10/5=1/2;
 6/7=2,8=2,9=2,10=2/1;
 7/12=2/1,2,3,16;
 1/18=20,19=15/3(2);
 2/9=2110/2;
 99//99;
 2/9=2110/2;
 3/5=1,6=6,7=1,11=9,25=1,30=1,71=1/1,2,3;
 4/5=5,16=3,69=1/1;
 5/5=2,38=5/2;
 8/6=4,10=2/1;
 9/15=2,16=-3/6;
 10/5=1/2;
 7/12=2/1,2,3,16;
 1/18=20,19=15/3(-8);
 2/9=2110/2;
 6/7=2,8=2,9=2,10=2/1;
 99//99;
 ---------------------------
 PRLD Dihedral/Improper Scan
 ---------------------------
 Symbolic Z-matrix:
 Charge =  0 Multiplicity = 1
 N1                    0.844     0.456     0.923 
 H2                    1.372     0.495     1.798 
 C3                    1.643     1.125    -0.113 
 H4                    2.        2.097     0.243 
 H5                    0.987     1.307    -0.971 
 C6                    2.779     0.153    -0.504 
 H7                    3.689     0.384     0.059 
 H8                    3.031     0.222    -1.566 
 C9                    2.231    -1.24     -0.112 
 H10                   2.866    -1.707     0.647 
 H11                   2.185    -1.928    -0.962 
 C12                   0.83     -0.941     0.469 
 H13                   0.542    -1.609     1.286 
 H14                   0.068    -1.027    -0.314 
 
 The following ModRedundant input section has been read:
 D       3       6       9      12 S   6 15.000                                
 

 GradGradGradGradGradGradGradGradGradGradGradGradGradGradGradGradGradGrad
 Berny optimization.
 Initialization pass.
                           ----------------------------
                           !    Initial Parameters    !
                           ! (Angstroms and Degrees)  !
 --------------------------                            --------------------------
 ! Name  Definition              Value          Derivative Info.                !
 --------------------------------------------------------------------------------
 ! R1    R(1,2)                  1.0227         estimate D2E/DX2                !
 ! R2    R(1,3)                  1.4694         estimate D2E/DX2                !
 ! R3    R(1,12)                 1.469          estimate D2E/DX2                !
 ! R4    R(3,4)                  1.095          estimate D2E/DX2                !
 ! R5    R(3,5)                  1.0953         estimate D2E/DX2                !
 ! R6    R(3,6)                  1.5454         estimate D2E/DX2                !
 ! R7    R(6,7)                  1.0947         estimate D2E/DX2                !
 ! R8    R(6,8)                  1.0937         estimate D2E/DX2                !
 ! R9    R(6,9)                  1.5474         estimate D2E/DX2                !
 ! R10   R(9,10)                 1.0943         estimate D2E/DX2                !
 ! R11   R(9,11)                 1.0945         estimate D2E/DX2                !
 ! R12   R(9,12)                 1.5459         estimate D2E/DX2                !
 ! R13   R(12,13)                1.0939         estimate D2E/DX2                !
 ! R14   R(12,14)                1.096          estimate D2E/DX2                !
 ! A1    A(2,1,3)              107.7654         estimate D2E/DX2                !
 ! A2    A(2,1,12)             107.7946         estimate D2E/DX2                !
 ! A3    A(3,1,12)             102.7239         estimate D2E/DX2                !
 ! A4    A(1,3,4)              110.6221         estimate D2E/DX2                !
 ! A5    A(1,3,5)              107.5946         estimate D2E/DX2                !
 ! A6    A(1,3,6)              106.9617         estimate D2E/DX2                !
 ! A7    A(4,3,5)              107.6053         estimate D2E/DX2                !
 ! A8    A(4,3,6)              113.6363         estimate D2E/DX2                !
 ! A9    A(5,3,6)              110.279          estimate D2E/DX2                !
 ! A10   A(3,6,7)              110.3782         estimate D2E/DX2                !
 ! A11   A(3,6,8)              112.0481         estimate D2E/DX2                !
 ! A12   A(3,6,9)              103.9924         estimate D2E/DX2                !
 ! A13   A(7,6,8)              107.1301         estimate D2E/DX2                !
 ! A14   A(7,6,9)              110.7358         estimate D2E/DX2                !
 ! A15   A(8,6,9)              112.6059         estimate D2E/DX2                !
 ! A16   A(6,9,10)             110.7565         estimate D2E/DX2                !
 ! A17   A(6,9,11)             112.5829         estimate D2E/DX2                !
 ! A18   A(6,9,12)             104.0073         estimate D2E/DX2                !
 ! A19   A(10,9,11)            107.145          estimate D2E/DX2                !
 ! A20   A(10,9,12)            110.3511         estimate D2E/DX2                !
 ! A21   A(11,9,12)            112.0469         estimate D2E/DX2                !
 ! A22   A(1,12,9)             106.9451         estimate D2E/DX2                !
 ! A23   A(1,12,13)            110.635          estimate D2E/DX2                !
 ! A24   A(1,12,14)            107.581          estimate D2E/DX2                !
 ! A25   A(9,12,13)            113.6523         estimate D2E/DX2                !
 ! A26   A(9,12,14)            110.2689         estimate D2E/DX2                !
 ! A27   A(13,12,14)           107.615          estimate D2E/DX2                !
 ! D1    D(2,1,3,4)            -48.7385         estimate D2E/DX2                !
 ! D2    D(2,1,3,5)           -166.0198         estimate D2E/DX2                !
 ! D3    D(2,1,3,6)             75.4998         estimate D2E/DX2                !
 ! D4    D(12,1,3,4)          -162.4            estimate D2E/DX2                !
 ! D5    D(12,1,3,5)            80.3186         estimate D2E/DX2                !
 ! D6    D(12,1,3,6)           -38.1617         estimate D2E/DX2                !
 ! D7    D(2,1,12,9)           -75.5014         estimate D2E/DX2                !
 ! D8    D(2,1,12,13)           48.7538         estimate D2E/DX2                !
 ! D9    D(2,1,12,14)          166.0459         estimate D2E/DX2                !
 ! D10   D(3,1,12,9)            38.1387         estimate D2E/DX2                !
 ! D11   D(3,1,12,13)          162.3939         estimate D2E/DX2                !
 ! D12   D(3,1,12,14)          -80.314          estimate D2E/DX2                !
 ! D13   D(1,3,6,7)            -95.3684         estimate D2E/DX2                !
 ! D14   D(1,3,6,8)            145.3276         estimate D2E/DX2                !
 ! D15   D(1,3,6,9)             23.4354         estimate D2E/DX2                !
 ! D16   D(4,3,6,7)             27.004          estimate D2E/DX2                !
 ! D17   D(4,3,6,8)            -92.2999         estimate D2E/DX2                !
 ! D18   D(4,3,6,9)            145.8078         estimate D2E/DX2                !
 ! D19   D(5,3,6,7)            147.9132         estimate D2E/DX2                !
 ! D20   D(5,3,6,8)             28.6092         estimate D2E/DX2                !
 ! D21   D(5,3,6,9)            -93.2831         estimate D2E/DX2                !
 ! D22   D(3,6,9,10)          -118.5629         estimate D2E/DX2                !
 ! D23   D(3,6,9,11)           121.4993         estimate D2E/DX2                !
 ! D24   D(3,6,9,12)            -0.0176         Scan                            !
 ! D25   D(7,6,9,10)            -0.0044         estimate D2E/DX2                !
 ! D26   D(7,6,9,11)          -119.9421         estimate D2E/DX2                !
 ! D27   D(7,6,9,12)           118.541          estimate D2E/DX2                !
 ! D28   D(8,6,9,10)           119.9156         estimate D2E/DX2                !
 ! D29   D(8,6,9,11)            -0.0222         estimate D2E/DX2                !
 ! D30   D(8,6,9,12)          -121.5391         estimate D2E/DX2                !
 ! D31   D(6,9,12,1)           -23.4104         estimate D2E/DX2                !
 ! D32   D(6,9,12,13)         -145.7976         estimate D2E/DX2                !
 ! D33   D(6,9,12,14)           93.2771         estimate D2E/DX2                !
 ! D34   D(10,9,12,1)           95.4127         estimate D2E/DX2                !
 ! D35   D(10,9,12,13)         -26.9744         estimate D2E/DX2                !
 ! D36   D(10,9,12,14)        -147.8998         estimate D2E/DX2                !
 ! D37   D(11,9,12,1)         -145.2836         estimate D2E/DX2                !
 ! D38   D(11,9,12,13)          92.3293         estimate D2E/DX2                !
 ! D39   D(11,9,12,14)         -28.5961         estimate D2E/DX2                !
 --------------------------------------------------------------------------------
 Trust Radius=3.00D-01 FncErr=1.00D-07 GrdErr=1.00D-07 EigMax=2.50D+02 EigMin=1.00D-04
 Number of optimizations in scan=   7
 Number of steps in this run=     90 maximum allowed number of steps=    100.
 GradGradGradGradGradGradGradGradGradGradGradGradGradGradGradGradGradGrad

                          Input orientation:                          
 ---------------------------------------------------------------------
 Center     Atomic      Atomic             Coordinates (Angstroms)
 Number     Number       Type             X           Y           Z
 ---------------------------------------------------------------------
      1          7           0        0.844000    0.456000    0.923000
      2          1           0        1.372000    0.495000    1.798000
      3          6           0        1.643000    1.125000   -0.113000
      4          1           0        2.000000    2.097000    0.243000
      5          1           0        0.987000    1.307000   -0.971000
      6          6           0        2.779000    0.153000   -0.504000
      7          1           0        3.689000    0.384000    0.059000
      8          1           0        3.031000    0.222000   -1.566000
      9          6           0        2.231000   -1.240000   -0.112000
     10          1           0        2.866000   -1.707000    0.647000
     11          1           0        2.185000   -1.928000   -0.962000
     12          6           0        0.830000   -0.941000    0.469000
     13          1           0        0.542000   -1.609000    1.286000
     14          1           0        0.068000   -1.027000   -0.314000
 ---------------------------------------------------------------------
                    Distance matrix (angstroms):
                    1          2          3          4          5
     1  N    0.000000
     2  H    1.022707   0.000000
     3  C    1.469441   2.030335   0.000000
     4  H    2.119343   2.319227   1.094974   0.000000
     5  H    2.081318   2.911173   1.095274   1.767502   0.000000
     6  C    2.423296   2.719525   1.545368   2.223508   2.181987
     7  H    2.974173   2.899126   2.182838   2.412664   3.035397
     8  H    3.321573   3.760759   2.202989   2.801975   2.389390
     9  C    2.423099   2.719597   2.437000   3.363771   2.961862
    10  H    2.973757   2.899248   3.177035   3.922192   3.902917
    11  H    3.321891   3.761582   3.214868   4.205577   3.449712
    12  C    1.468986   2.030296   2.295223   3.263345   2.674276
    13  H    2.118301   2.319021   3.262539   4.116801   3.714180
    14  H    2.081258   2.911605   2.674347   3.715138   2.593023
                    6          7          8          9         10
     6  C    0.000000
     7  H    1.094728   0.000000
     8  H    1.093668   1.760634   0.000000
     9  C    1.547390   2.189151   2.211687   0.000000
    10  H    2.189057   2.322790   2.940346   1.094255   0.000000
    11  H    2.212049   2.941054   2.388102   1.094514   1.761103
    12  C    2.437656   3.177673   3.215306   1.545886   2.182598
    13  H    3.363467   3.921886   4.204948   2.223350   2.412240
    14  H    2.962773   3.904061   3.450634   2.182829   3.035577
                   11         12         13         14
    11  H    0.000000
    12  C    2.204077   0.000000
    13  H    2.802626   1.093918   0.000000
    14  H    2.390271   1.095960   1.767314   0.000000
 Stoichiometry    C4H9N
 Framework group  C1[X(C4H9N)]
 Deg. of freedom    36
 Full point group                 C1      NOp   1
 Largest Abelian subgroup         C1      NOp   1
 Largest concise Abelian subgroup C1      NOp   1
                         Standard orientation:                         
 ---------------------------------------------------------------------
 Center     Atomic      Atomic             Coordinates (Angstroms)
 Number     Number       Type             X           Y           Z
 ---------------------------------------------------------------------
      1          7           0       -0.009754   -1.267896   -0.216048
      2          1           0       -0.009609   -1.307741   -1.237979
      3          6           0        1.144047   -0.459296    0.201285
      4          1           0        2.052841   -0.790293   -0.312042
      5          1           0        1.291688   -0.622098    1.274281
      6          6           0        0.781546    1.017994   -0.071425
      7          1           0        1.171547    1.332796   -1.044681
      8          1           0        1.207027    1.690375    0.678894
      9          6           0       -0.765800    1.029688   -0.071443
     10          1           0       -1.151178    1.350244   -1.044131
     11          1           0       -1.181004    1.708768    0.679833
     12          6           0       -1.151114   -0.442432    0.200878
     13          1           0       -2.063843   -0.759288   -0.312137
     14          1           0       -1.301266   -0.603214    1.274532
 ---------------------------------------------------------------------
 Rotational constants (GHZ):           6.8866106           6.6914801           3.9136725
 Standard basis: 6-31G(d) (6D, 7F)
 There are    93 symmetry adapted cartesian basis functions of A   symmetry.
 There are    93 symmetry adapted basis functions of A   symmetry.
    93 basis functions,   176 primitive gaussians,    93 cartesian basis functions
    20 alpha electrons       20 beta electrons
       nuclear repulsion energy       190.0136865772 Hartrees.
 NAtoms=   14 NActive=   14 NUniq=   14 SFac= 1.00D+00 NAtFMM=   60 NAOKFM=F Big=F
 Integral buffers will be    131072 words long.
 Raffenetti 1 integral format.
 Two-electron integral symmetry is turned on.
 One-electron integrals computed using PRISM.
 NBasis=    93 RedAO= T EigKep=  3.15D-03  NBF=    93
 NBsUse=    93 1.00D-06 EigRej= -1.00D+00 NBFU=    93
 ExpMin= 1.61D-01 ExpMax= 4.17D+03 ExpMxC= 6.27D+02 IAcc=3 IRadAn=         5 AccDes= 0.00D+00
 Harris functional with IExCor=  205 and IRadAn=       5 diagonalized for initial guess.
 HarFok:  IExCor=  205 AccDes= 0.00D+00 IRadAn=         5 IDoV= 1 UseB2=F ITyADJ=14
 ICtDFT=  3500011 ScaDFX=  1.000000  1.000000  1.000000  1.000000
 FoFCou: FMM=F IPFlag=           0 FMFlag=      100000 FMFlg1=           0
         NFxFlg=           0 DoJE=T BraDBF=F KetDBF=T FulRan=T
         wScrn=  0.000000 ICntrl=       500 IOpCl=  0 I1Cent=   200000004 NGrid=           0
         NMat0=    1 NMatS0=      1 NMatT0=    0 NMatD0=    1 NMtDS0=    0 NMtDT0=    0
 Petite list used in FoFCou.
 Keep R1 ints in memory in canonical form, NReq=10436288.
 Requested convergence on RMS density matrix=1.00D-08 within 128 cycles.
 Requested convergence on MAX density matrix=1.00D-06.
 Requested convergence on             energy=1.00D-06.
 No special actions if energy rises.
 SCF Done:  E(RHF) =  -211.143200098     A.U. after   12 cycles
            NFock= 12  Conv=0.39D-08     -V/T= 2.0015
 ExpMin= 1.61D-01 ExpMax= 4.17D+03 ExpMxC= 6.27D+02 IAcc=3 IRadAn=         5 AccDes= 0.00D+00
 HarFok:  IExCor=  205 AccDes= 0.00D+00 IRadAn=         5 IDoV=-2 UseB2=F ITyADJ=14
 ICtDFT= 12500011 ScaDFX=  1.000000  1.000000  1.000000  1.000000
 Range of M.O.s used for correlation:     6    93
 NBasis=    93 NAE=    20 NBE=    20 NFC=     5 NFV=     0
 NROrb=     88 NOA=    15 NOB=    15 NVA=    73 NVB=    73
 Fully direct method using O(ONN) memory.
 JobTyp=1 Pass  1:  I=   6 to  20 NPSUse=  1 ParTrn=F ParDer=F DoDerP=T.
 Spin components of T(2) and E(2):
     alpha-alpha T2 =       0.2790801328D-01 E2=     -0.8405127363D-01
     alpha-beta  T2 =       0.1679168201D+00 E2=     -0.5160463410D+00
     beta-beta   T2 =       0.2790801328D-01 E2=     -0.8405127363D-01
 ANorm=    0.1106224591D+01
 E2 =    -0.6841488883D+00 EUMP2 =    -0.21182734898599D+03
          IDoAtm=11111111111111
          Differentiating once with respect to electric field.
                with respect to dipole field.
          Differentiating once with respect to nuclear coordinates.
 Keep R1 ints in memory in canonical form, NReq=10438744.
          There are     1 degrees of freedom in the 1st order CPHF.  IDoFFX=0 NUNeed=     1.
 LinEq1:  Iter=  0 NonCon=     1 RMS=4.26D-03 Max=4.54D-02 NDo=     1
 AX will form     1 AO Fock derivatives at one time.
 LinEq1:  Iter=  1 NonCon=     1 RMS=1.43D-03 Max=1.40D-02 NDo=     1
 LinEq1:  Iter=  2 NonCon=     1 RMS=2.90D-04 Max=3.43D-03 NDo=     1
 LinEq1:  Iter=  3 NonCon=     1 RMS=5.58D-05 Max=4.08D-04 NDo=     1
 LinEq1:  Iter=  4 NonCon=     1 RMS=1.18D-05 Max=1.55D-04 NDo=     1
 LinEq1:  Iter=  5 NonCon=     1 RMS=4.47D-06 Max=3.98D-05 NDo=     1
 LinEq1:  Iter=  6 NonCon=     1 RMS=1.05D-06 Max=1.56D-05 NDo=     1
 LinEq1:  Iter=  7 NonCon=     1 RMS=1.91D-07 Max=1.83D-06 NDo=     1
 LinEq1:  Iter=  8 NonCon=     1 RMS=6.29D-08 Max=5.75D-07 NDo=     1
 LinEq1:  Iter=  9 NonCon=     1 RMS=1.37D-08 Max=1.24D-07 NDo=     1
 LinEq1:  Iter= 10 NonCon=     1 RMS=3.65D-09 Max=2.96D-08 NDo=     1
 LinEq1:  Iter= 11 NonCon=     1 RMS=6.11D-10 Max=7.96D-09 NDo=     1
 LinEq1:  Iter= 12 NonCon=     1 RMS=1.20D-10 Max=1.50D-09 NDo=     1
 LinEq1:  Iter= 13 NonCon=     0 RMS=1.91D-11 Max=1.76D-10 NDo=     1
 Linear equations converged to 1.000D-10 1.000D-09 after    13 iterations.
 End of Minotr F.D. properties file   721 does not exist.
 End of Minotr F.D. properties file   722 does not exist.
 End of Minotr F.D. properties file   788 does not exist.

 **********************************************************************

            Population analysis using the SCF density.

 **********************************************************************

 Orbital symmetries:
       Occupied  (A) (A) (A) (A) (A) (A) (A) (A) (A) (A) (A) (A)
                 (A) (A) (A) (A) (A) (A) (A) (A)
       Virtual   (A) (A) (A) (A) (A) (A) (A) (A) (A) (A) (A) (A)
                 (A) (A) (A) (A) (A) (A) (A) (A) (A) (A) (A) (A)
                 (A) (A) (A) (A) (A) (A) (A) (A) (A) (A) (A) (A)
                 (A) (A) (A) (A) (A) (A) (A) (A) (A) (A) (A) (A)
                 (A) (A) (A) (A) (A) (A) (A) (A) (A) (A) (A) (A)
                 (A) (A) (A) (A) (A) (A) (A) (A) (A) (A) (A) (A)
                 (A)
 The electronic state is 1-A.
 Alpha  occ. eigenvalues --  -15.54076 -11.24200 -11.24195 -11.21855 -11.21799
 Alpha  occ. eigenvalues --   -1.21663  -1.01921  -0.96899  -0.81410  -0.78334
 Alpha  occ. eigenvalues --   -0.67516  -0.63699  -0.58968  -0.58396  -0.50622
 Alpha  occ. eigenvalues --   -0.49289  -0.47912  -0.47626  -0.45740  -0.37275
 Alpha virt. eigenvalues --    0.21279   0.24725   0.28660   0.29029   0.30117
 Alpha virt. eigenvalues --    0.32558   0.33858   0.33958   0.36392   0.37738
 Alpha virt. eigenvalues --    0.40785   0.41401   0.48517   0.52442   0.72779
 Alpha virt. eigenvalues --    0.76267   0.76616   0.79767   0.80365   0.83842
 Alpha virt. eigenvalues --    0.90478   0.92044   0.92595   0.94963   1.01860
 Alpha virt. eigenvalues --    1.02452   1.09480   1.10988   1.12808   1.13150
 Alpha virt. eigenvalues --    1.15438   1.17173   1.19496   1.20850   1.21106
 Alpha virt. eigenvalues --    1.23722   1.24020   1.24151   1.49539   1.52543
 Alpha virt. eigenvalues --    1.59180   1.59545   1.69288   1.90975   2.00838
 Alpha virt. eigenvalues --    2.08684   2.12260   2.13555   2.19833   2.22442
 Alpha virt. eigenvalues --    2.29045   2.31775   2.35028   2.42288   2.43267
 Alpha virt. eigenvalues --    2.43361   2.51046   2.57266   2.59218   2.71449
 Alpha virt. eigenvalues --    2.73627   2.81719   2.90009   2.95574   2.97825
 Alpha virt. eigenvalues --    2.98905   3.02819   3.24107   4.34967   4.60737
 Alpha virt. eigenvalues --    4.68019   4.86124   5.04389
          Condensed to atoms (all electrons):
               1          2          3          4          5          6
     1  N    7.058662   0.327541   0.294203  -0.033404  -0.047556  -0.084999
     2  H    0.327541   0.433304  -0.042392  -0.005379   0.005680  -0.000687
     3  C    0.294203  -0.042392   4.977886   0.403748   0.406065   0.333688
     4  H   -0.033404  -0.005379   0.403748   0.521240  -0.026325  -0.035555
     5  H   -0.047556   0.005680   0.406065  -0.026325   0.544869  -0.053864
     6  C   -0.084999  -0.000687   0.333688  -0.035555  -0.053864   5.205597
     7  H    0.002637   0.000959  -0.038300  -0.004204   0.003824   0.396024
     8  H    0.004386  -0.000026  -0.032387   0.001335  -0.002463   0.391464
     9  C   -0.085089  -0.000691  -0.061393   0.003840  -0.000390   0.321496
    10  H    0.002649   0.000958   0.003257  -0.000161  -0.000013  -0.038489
    11  H    0.004384  -0.000026   0.002984  -0.000064   0.000166  -0.033459
    12  C    0.294002  -0.042370  -0.094809   0.006117  -0.001884  -0.061284
    13  H   -0.033416  -0.005385   0.006123  -0.000114  -0.000171   0.003829
    14  H   -0.047622   0.005682  -0.001900  -0.000171   0.003456  -0.000382
               7          8          9         10         11         12
     1  N    0.002637   0.004386  -0.085089   0.002649   0.004384   0.294002
     2  H    0.000959  -0.000026  -0.000691   0.000958  -0.000026  -0.042370
     3  C   -0.038300  -0.032387  -0.061393   0.003257   0.002984  -0.094809
     4  H   -0.004204   0.001335   0.003840  -0.000161  -0.000064   0.006117
     5  H    0.003824  -0.002463  -0.000390  -0.000013   0.000166  -0.001884
     6  C    0.396024   0.391464   0.321496  -0.038489  -0.033459  -0.061284
     7  H    0.542616  -0.025836  -0.038527  -0.006280   0.002599   0.003251
     8  H   -0.025836   0.527014  -0.033400   0.002596  -0.003631   0.002974
     9  C   -0.038527  -0.033400   5.205831   0.395992   0.391377   0.333836
    10  H   -0.006280   0.002596   0.395992   0.542443  -0.025801  -0.038327
    11  H    0.002599  -0.003631   0.391377  -0.025801   0.527314  -0.032361
    12  C    0.003251   0.002974   0.333836  -0.038327  -0.032361   4.977646
    13  H   -0.000161  -0.000063  -0.035505  -0.004188   0.001332   0.403827
    14  H   -0.000013   0.000165  -0.053852   0.003822  -0.002460   0.406044
              13         14
     1  N   -0.033416  -0.047622
     2  H   -0.005385   0.005682
     3  C    0.006123  -0.001900
     4  H   -0.000114  -0.000171
     5  H   -0.000171   0.003456
     6  C    0.003829  -0.000382
     7  H   -0.000161  -0.000013
     8  H   -0.000063   0.000165
     9  C   -0.035505  -0.053852
    10  H   -0.004188   0.003822
    11  H    0.001332  -0.002460
    12  C    0.403827   0.406044
    13  H    0.520894  -0.026326
    14  H   -0.026326   0.545162
 Mulliken charges:
               1
     1  N   -0.656379
     2  H    0.322831
     3  C   -0.156772
     4  H    0.169095
     5  H    0.168606
     6  C   -0.343380
     7  H    0.161410
     8  H    0.167872
     9  C   -0.343527
    10  H    0.161542
    11  H    0.167645
    12  C   -0.156662
    13  H    0.169324
    14  H    0.168395
 Sum of Mulliken charges =  -0.00000
 Mulliken charges with hydrogens summed into heavy atoms:
               1
     1  N   -0.333548
     3  C    0.180929
     6  C   -0.014098
     9  C   -0.014340
    12  C    0.181057
 Electronic spatial extent (au):  <R**2>=            390.2955
 Charge=             -0.0000 electrons
 Dipole moment (field-independent basis, Debye):
    X=              0.0108    Y=              1.4000    Z=             -0.6708  Tot=              1.5525
 Quadrupole moment (field-independent basis, Debye-Ang):
   XX=            -31.4430   YY=            -37.4386   ZZ=            -30.3356
   XY=             -0.0423   XZ=              0.0141   YZ=              1.4414
 Traceless Quadrupole moment (field-independent basis, Debye-Ang):
   XX=              1.6294   YY=             -4.3662   ZZ=              2.7368
   XY=             -0.0423   XZ=              0.0141   YZ=              1.4414
 Octapole moment (field-independent basis, Debye-Ang**2):
  XXX=             -0.0557  YYY=              7.4680  ZZZ=             -2.5630  XYY=              0.0925
  XXY=             -2.2856  XXZ=             -1.0006  XZZ=             -0.0165  YZZ=             -2.3218
  YYZ=             -1.4684  XYZ=             -0.0024
 Hexadecapole moment (field-independent basis, Debye-Ang**3):
 XXXX=           -226.6934 YYYY=           -248.7377 ZZZZ=            -65.8087 XXXY=              0.0072
 XXXZ=              0.0625 YYYX=             -0.1840 YYYZ=              5.7507 ZZZX=              0.0341
 ZZZY=              3.2304 XXYY=            -75.0449 XXZZ=            -48.5104 YYZZ=            -45.1589
 XXYZ=              2.0821 YYXZ=              0.0159 ZZXY=              0.0194
 N-N= 1.900136865772D+02 E-N=-8.720763185249D+02  KE= 2.108304137868D+02
 Calling FoFJK, ICntrl=  10002127 FMM=F ISym2X=0 I1Cent= 0 IOpClX= 0 NMat=1 NMatS=1 NMatT=0.
 ***** Axes restored to original set *****
 -------------------------------------------------------------------
 Center     Atomic                   Forces (Hartrees/Bohr)
 Number     Number              X              Y              Z
 -------------------------------------------------------------------
      1        7           0.000067218    0.000324295    0.000355385
      2        1          -0.000147219   -0.000035560   -0.000241089
      3        6           0.000758105    0.000773310    0.000735129
      4        1          -0.000288273   -0.000698691   -0.000271797
      5        1          -0.000308412    0.000033250   -0.000433494
      6        6          -0.000098258    0.000152779    0.000315185
      7        1          -0.000099833   -0.000004959   -0.000060197
      8        1           0.000110722   -0.000045813   -0.000301852
      9        6          -0.000507108   -0.000177978   -0.000275408
     10        1           0.000133008   -0.000094664    0.000103544
     11        1           0.000074374    0.000132703    0.000198827
     12        6           0.000296758   -0.000382461    0.000076681
     13        1           0.000028013    0.000050298   -0.000099903
     14        1          -0.000019094   -0.000026509   -0.000101012
 -------------------------------------------------------------------
 Cartesian Forces:  Max     0.000773310 RMS     0.000306300

 GradGradGradGradGradGradGradGradGradGradGradGradGradGradGradGradGradGrad
 Berny optimization.
 FormGI is forming the generalized inverse of G from B-inverse, IUseBI=4.
 Internal  Forces:  Max     0.000802576 RMS     0.000137397
 Search for a local minimum.
 Step number   1 out of a maximum of   90 on scan point     1 out of     7
 All quantities printed in internal units (Hartrees-Bohrs-Radians)
 Mixed Optimization -- En-DIIS/RFO-DIIS
 Second derivative matrix not updated -- first step.
 ITU=  0
     Eigenvalues ---    0.00752   0.01323   0.02318   0.02345   0.04343
     Eigenvalues ---    0.04652   0.04950   0.05433   0.05518   0.05764
     Eigenvalues ---    0.06010   0.06889   0.06892   0.08231   0.08755
     Eigenvalues ---    0.08799   0.09333   0.11027   0.11559   0.20193
     Eigenvalues ---    0.21324   0.26384   0.27012   0.28012   0.32971
     Eigenvalues ---    0.34133   0.34210   0.34244   0.34272   0.34296
     Eigenvalues ---    0.34325   0.34364   0.34392   0.34404   0.43909
     Eigenvalues --- 1000.000001000.000001000.000001000.000001000.00000
     Eigenvalues --- 1000.000001000.000001000.000001000.000001000.00000
     Eigenvalues --- 1000.000001000.000001000.000001000.000001000.00000
     Eigenvalues --- 1000.000001000.000001000.000001000.000001000.00000
     Eigenvalues --- 1000.000001000.000001000.000001000.000001000.00000
     Eigenvalues --- 1000.000001000.000001000.000001000.000001000.00000
     Eigenvalues --- 1000.000001000.000001000.000001000.000001000.00000
     Eigenvalues --- 1000.000001000.000001000.000001000.000001000.00000
     Eigenvalues --- 1000.000001000.000001000.000001000.000001000.00000
 RFO step:  Lambda=-4.87400371D-06 EMin= 7.51733785D-03
 Linear search not attempted -- first point.
 Iteration  1 RMS(Cart)=  0.00037954 RMS(Int)=  0.00000020
 Iteration  2 RMS(Cart)=  0.00000017 RMS(Int)=  0.00000008
 Iteration  1 RMS(Cart)=  0.00000000 RMS(Int)=  0.00000001
 Variable       Old X    -DE/DX   Delta X   Delta X   Delta X     New X
                                 (Linear)    (Quad)   (Total)
    R1        1.93264  -0.00028   0.00000  -0.00065  -0.00065   1.93199
    R2        2.77684   0.00007   0.00000   0.00024   0.00024   2.77708
    R3        2.77598   0.00035   0.00000   0.00103   0.00103   2.77701
    R4        2.06920  -0.00080   0.00000  -0.00234  -0.00234   2.06686
    R5        2.06977   0.00053   0.00000   0.00155   0.00155   2.07132
    R6        2.92032  -0.00004   0.00000  -0.00014  -0.00014   2.92018
    R7        2.06874  -0.00011   0.00000  -0.00034  -0.00034   2.06840
    R8        2.06673   0.00032   0.00000   0.00092   0.00092   2.06765
    R9        2.92414   0.00015   0.00000   0.00045   0.00045   2.92459
   R10        2.06784   0.00019   0.00000   0.00055   0.00055   2.06839
   R11        2.06833  -0.00024   0.00000  -0.00070  -0.00070   2.06763
   R12        2.92130  -0.00026   0.00000  -0.00097  -0.00097   2.92033
   R13        2.06721  -0.00011   0.00000  -0.00033  -0.00033   2.06688
   R14        2.07106   0.00009   0.00000   0.00026   0.00026   2.07132
    A1        1.88086   0.00002   0.00000   0.00003   0.00003   1.88089
    A2        1.88137  -0.00002   0.00000  -0.00029  -0.00029   1.88109
    A3        1.79287  -0.00003   0.00000   0.00011   0.00011   1.79298
    A4        1.93072   0.00001   0.00000   0.00034   0.00034   1.93106
    A5        1.87788   0.00001   0.00000  -0.00031  -0.00031   1.87757
    A6        1.86683  -0.00005   0.00000  -0.00014  -0.00014   1.86669
    A7        1.87807   0.00000   0.00000   0.00013   0.00013   1.87820
    A8        1.98333   0.00006   0.00000   0.00060   0.00060   1.98392
    A9        1.92473  -0.00005   0.00000  -0.00067  -0.00067   1.92406
   A10        1.92646  -0.00005   0.00000  -0.00032  -0.00032   1.92614
   A11        1.95561   0.00003   0.00000   0.00061   0.00061   1.95621
   A12        1.81501   0.00008   0.00000   0.00041   0.00041   1.81542
   A13        1.86977   0.00001   0.00000  -0.00019  -0.00019   1.86958
   A14        1.93270   0.00000   0.00000  -0.00001  -0.00001   1.93269
   A15        1.96534  -0.00007   0.00000  -0.00049  -0.00049   1.96486
   A16        1.93307  -0.00001   0.00000  -0.00021  -0.00021   1.93286
   A17        1.96494  -0.00000   0.00000  -0.00001  -0.00001   1.96493
   A18        1.81527  -0.00001   0.00000  -0.00006  -0.00006   1.81521
   A19        1.87003  -0.00003   0.00000  -0.00042  -0.00042   1.86962
   A20        1.92599   0.00001   0.00000   0.00015   0.00015   1.92614
   A21        1.95559   0.00004   0.00000   0.00057   0.00057   1.95615
   A22        1.86654   0.00003   0.00000   0.00032   0.00032   1.86686
   A23        1.93094   0.00001   0.00000   0.00032   0.00032   1.93126
   A24        1.87764   0.00001   0.00000   0.00006   0.00006   1.87771
   A25        1.98361  -0.00001   0.00000   0.00006   0.00006   1.98366
   A26        1.92455  -0.00006   0.00000  -0.00075  -0.00075   1.92380
   A27        1.87824   0.00001   0.00000  -0.00001  -0.00001   1.87822
    D1       -0.85065  -0.00002   0.00000  -0.00021  -0.00021  -0.85086
    D2       -2.89759  -0.00004   0.00000  -0.00037  -0.00037  -2.89797
    D3        1.31772   0.00004   0.00000   0.00065   0.00065   1.31837
    D4       -2.83442   0.00002   0.00000   0.00005   0.00005  -2.83436
    D5        1.40182  -0.00001   0.00000  -0.00011  -0.00011   1.40171
    D6       -0.66605   0.00007   0.00000   0.00091   0.00091  -0.66514
    D7       -1.31775  -0.00002   0.00000  -0.00063  -0.00063  -1.31838
    D8        0.85091  -0.00000   0.00000  -0.00015  -0.00015   0.85076
    D9        2.89805   0.00003   0.00000   0.00004   0.00004   2.89809
   D10        0.66565  -0.00001   0.00000  -0.00067  -0.00067   0.66498
   D11        2.83431   0.00000   0.00000  -0.00018  -0.00019   2.83412
   D12       -1.40174   0.00003   0.00000   0.00001   0.00001  -1.40173
   D13       -1.66449  -0.00003   0.00000  -0.00047  -0.00047  -1.66497
   D14        2.53645  -0.00002   0.00000  -0.00041  -0.00041   2.53603
   D15        0.40902  -0.00001   0.00000  -0.00041  -0.00041   0.40861
   D16        0.47131  -0.00000   0.00000   0.00024   0.00024   0.47155
   D17       -1.61094   0.00000   0.00000   0.00030   0.00030  -1.61064
   D18        2.54483   0.00002   0.00000   0.00030   0.00030   2.54513
   D19        2.58157   0.00001   0.00000   0.00033   0.00033   2.58191
   D20        0.49932   0.00001   0.00000   0.00039   0.00039   0.49972
   D21       -1.62810   0.00003   0.00000   0.00039   0.00039  -1.62770
   D22       -2.06931   0.00001   0.00000  -0.00004  -0.00004  -2.06935
   D23        2.12056   0.00005   0.00000   0.00064   0.00064   2.12121
   D24       -0.00031   0.00001   0.00000   0.00000  -0.00000  -0.00031
   D25       -0.00008  -0.00001   0.00000  -0.00018  -0.00018  -0.00026
   D26       -2.09339   0.00003   0.00000   0.00050   0.00050  -2.09289
   D27        2.06893  -0.00000   0.00000  -0.00015  -0.00015   2.06878
   D28        2.09292  -0.00005   0.00000  -0.00077  -0.00077   2.09215
   D29       -0.00039  -0.00000   0.00000  -0.00009  -0.00009  -0.00047
   D30       -2.12126  -0.00004   0.00000  -0.00073  -0.00073  -2.12199
   D31       -0.40859   0.00002   0.00000   0.00048   0.00048  -0.40811
   D32       -2.54465  -0.00001   0.00000  -0.00019  -0.00019  -2.54484
   D33        1.62799   0.00002   0.00000   0.00034   0.00034   1.62833
   D34        1.66527   0.00001   0.00000   0.00027   0.00027   1.66554
   D35       -0.47079  -0.00002   0.00000  -0.00039  -0.00039  -0.47119
   D36       -2.58134   0.00001   0.00000   0.00013   0.00013  -2.58121
   D37       -2.53568   0.00001   0.00000   0.00022   0.00022  -2.53546
   D38        1.61145  -0.00002   0.00000  -0.00045  -0.00045   1.61100
   D39       -0.49910   0.00001   0.00000   0.00008   0.00008  -0.49902
         Item               Value     Threshold  Converged?
 Maximum Force            0.000803     0.000450     NO 
 RMS     Force            0.000138     0.000300     YES
 Maximum Displacement     0.001152     0.001800     YES
 RMS     Displacement     0.000380     0.001200     YES
 Predicted change in Energy=-2.436949D-06
 GradGradGradGradGradGradGradGradGradGradGradGradGradGradGradGradGradGrad

                          Input orientation:                          
 ---------------------------------------------------------------------
 Center     Atomic      Atomic             Coordinates (Angstroms)
 Number     Number       Type             X           Y           Z
 ---------------------------------------------------------------------
      1          7           0        0.843994    0.456446    0.923246
      2          1           0        1.371563    0.495278    1.798114
      3          6           0        1.643371    1.125610   -0.112538
      4          1           0        1.999907    2.096596    0.242881
      5          1           0        0.986955    1.307396   -0.971312
      6          6           0        2.778746    0.153133   -0.503883
      7          1           0        3.688696    0.383887    0.058954
      8          1           0        3.031110    0.221682   -1.566326
      9          6           0        2.230602   -1.240121   -0.112048
     10          1           0        2.866078   -1.707361    0.646827
     11          1           0        2.184912   -1.927848   -0.961806
     12          6           0        0.830275   -0.941117    0.469205
     13          1           0        0.542289   -1.609250    1.285868
     14          1           0        0.068501   -1.027331   -0.314181
 ---------------------------------------------------------------------
                    Distance matrix (angstroms):
                    1          2          3          4          5
     1  N    0.000000
     2  H    1.022365   0.000000
     3  C    1.469569   2.030219   0.000000
     4  H    2.118755   2.319005   1.093734   0.000000
     5  H    2.081803   2.911559   1.096093   1.767249   0.000000
     6  C    2.423213   2.719636   1.545295   2.222902   2.182046
     7  H    2.973986   2.899343   2.182410   2.412304   3.035411
     8  H    3.322132   3.761437   2.203725   2.802126   2.389850
     9  C    2.423397   2.719977   2.437523   3.363461   2.962235
    10  H    2.974441   2.900113   3.177636   3.922182   3.903619
    11  H    3.322100   3.761680   3.215296   4.204955   3.449928
    12  C    1.469532   2.030325   2.295846   3.262968   2.674967
    13  H    2.118873   2.319295   3.263032   4.116523   3.714757
    14  H    2.081877   2.911718   2.675076   3.714777   2.593517
                    6          7          8          9         10
     6  C    0.000000
     7  H    1.094551   0.000000
     8  H    1.094153   1.760757   0.000000
     9  C    1.547629   2.189219   2.211924   0.000000
    10  H    2.189338   2.322846   2.940492   1.094547   0.000000
    11  H    2.211971   2.940652   2.387881   1.094142   1.760767
    12  C    2.437381   3.177186   3.215457   1.545372   2.182470
    13  H    3.363175   3.921452   4.204945   2.222797   2.412053
    14  H    2.962248   3.903406   3.450356   2.181930   3.035197
                   11         12         13         14
    11  H    0.000000
    12  C    2.203741   0.000000
    13  H    2.802099   1.093745   0.000000
    14  H    2.389466   1.096096   1.767276   0.000000
 Stoichiometry    C4H9N
 Framework group  C1[X(C4H9N)]
 Deg. of freedom    36
 Full point group                 C1      NOp   1
 Largest Abelian subgroup         C1      NOp   1
 Largest concise Abelian subgroup C1      NOp   1
                         Standard orientation:                         
 ---------------------------------------------------------------------
 Center     Atomic      Atomic             Coordinates (Angstroms)
 Number     Number       Type             X           Y           Z
 ---------------------------------------------------------------------
      1          7           0        0.003135   -1.268186   -0.215808
      2          1           0        0.003420   -1.308494   -1.237378
      3          6           0        1.149043   -0.447907    0.200930
      4          1           0        2.060165   -0.769605   -0.311535
      5          1           0        1.298138   -0.608789    1.274852
      6          6           0        0.771284    1.025522   -0.071543
      7          1           0        1.157944    1.344079   -1.044711
      8          1           0        1.189868    1.702999    0.678780
      9          6           0       -0.776340    1.021882   -0.071361
     10          1           0       -1.164895    1.338847   -1.044291
     11          1           0       -1.198006    1.696996    0.679349
     12          6           0       -1.146796   -0.453543    0.200774
     13          1           0       -2.056347   -0.779384   -0.311889
     14          1           0       -1.295371   -0.615072    1.274674
 ---------------------------------------------------------------------
 Rotational constants (GHZ):           6.8849916           6.6919680           3.9130639
 Standard basis: 6-31G(d) (6D, 7F)
 There are    93 symmetry adapted cartesian basis functions of A   symmetry.
 There are    93 symmetry adapted basis functions of A   symmetry.
    93 basis functions,   176 primitive gaussians,    93 cartesian basis functions
    20 alpha electrons       20 beta electrons
       nuclear repulsion energy       190.0064964245 Hartrees.
 NAtoms=   14 NActive=   14 NUniq=   14 SFac= 1.00D+00 NAtFMM=   60 NAOKFM=F Big=F
 Integral buffers will be    131072 words long.
 Raffenetti 1 integral format.
 Two-electron integral symmetry is turned on.
 One-electron integrals computed using PRISM.
 NBasis=    93 RedAO= T EigKep=  3.15D-03  NBF=    93
 NBsUse=    93 1.00D-06 EigRej= -1.00D+00 NBFU=    93
 Initial guess from the checkpoint file:  "PRLD.scan5.pos.chk"
 B after Tr=    -0.000000    0.000000   -0.000000
         Rot=    0.999988    0.000087   -0.000020   -0.004997 Ang=   0.57 deg.
 Keep R1 ints in memory in canonical form, NReq=10436318.
 Requested convergence on RMS density matrix=1.00D-08 within 128 cycles.
 Requested convergence on MAX density matrix=1.00D-06.
 Requested convergence on             energy=1.00D-06.
 No special actions if energy rises.
 SCF Done:  E(RHF) =  -211.143210626     A.U. after    8 cycles
            NFock=  8  Conv=0.36D-08     -V/T= 2.0015
 ExpMin= 1.61D-01 ExpMax= 4.17D+03 ExpMxC= 6.27D+02 IAcc=3 IRadAn=         5 AccDes= 0.00D+00
 HarFok:  IExCor=  205 AccDes= 0.00D+00 IRadAn=         5 IDoV=-2 UseB2=F ITyADJ=14
 ICtDFT= 12500011 ScaDFX=  1.000000  1.000000  1.000000  1.000000
 Range of M.O.s used for correlation:     6    93
 NBasis=    93 NAE=    20 NBE=    20 NFC=     5 NFV=     0
 NROrb=     88 NOA=    15 NOB=    15 NVA=    73 NVB=    73
 Fully direct method using O(ONN) memory.
 JobTyp=1 Pass  1:  I=   6 to  20 NPSUse=  1 ParTrn=F ParDer=F DoDerP=T.
 Spin components of T(2) and E(2):
     alpha-alpha T2 =       0.2790763763D-01 E2=     -0.8404924826D-01
     alpha-beta  T2 =       0.1679156427D+00 E2=     -0.5160422940D+00
     beta-beta   T2 =       0.2790763763D-01 E2=     -0.8404924826D-01
 ANorm=    0.1106223720D+01
 E2 =    -0.6841407905D+00 EUMP2 =    -0.21182735141689D+03
          IDoAtm=11111111111111
          Differentiating once with respect to electric field.
                with respect to dipole field.
          Differentiating once with respect to nuclear coordinates.
 Keep R1 ints in memory in canonical form, NReq=10438744.
          There are     1 degrees of freedom in the 1st order CPHF.  IDoFFX=0 NUNeed=     1.
 LinEq1:  Iter=  0 NonCon=     1 RMS=4.26D-03 Max=4.53D-02 NDo=     1
 AX will form     1 AO Fock derivatives at one time.
 LinEq1:  Iter=  1 NonCon=     1 RMS=1.43D-03 Max=1.40D-02 NDo=     1
 LinEq1:  Iter=  2 NonCon=     1 RMS=2.90D-04 Max=3.42D-03 NDo=     1
 LinEq1:  Iter=  3 NonCon=     1 RMS=5.59D-05 Max=4.10D-04 NDo=     1
 LinEq1:  Iter=  4 NonCon=     1 RMS=1.19D-05 Max=1.55D-04 NDo=     1
 LinEq1:  Iter=  5 NonCon=     1 RMS=4.50D-06 Max=4.00D-05 NDo=     1
 LinEq1:  Iter=  6 NonCon=     1 RMS=1.05D-06 Max=1.55D-05 NDo=     1
 LinEq1:  Iter=  7 NonCon=     1 RMS=1.92D-07 Max=1.83D-06 NDo=     1
 LinEq1:  Iter=  8 NonCon=     1 RMS=6.33D-08 Max=5.79D-07 NDo=     1
 LinEq1:  Iter=  9 NonCon=     1 RMS=1.37D-08 Max=1.25D-07 NDo=     1
 LinEq1:  Iter= 10 NonCon=     1 RMS=3.65D-09 Max=2.96D-08 NDo=     1
 LinEq1:  Iter= 11 NonCon=     1 RMS=6.11D-10 Max=7.96D-09 NDo=     1
 LinEq1:  Iter= 12 NonCon=     1 RMS=1.20D-10 Max=1.50D-09 NDo=     1
 LinEq1:  Iter= 13 NonCon=     0 RMS=1.90D-11 Max=1.76D-10 NDo=     1
 Linear equations converged to 1.000D-10 1.000D-09 after    13 iterations.
 End of Minotr F.D. properties file   721 does not exist.
 End of Minotr F.D. properties file   722 does not exist.
 End of Minotr F.D. properties file   788 does not exist.
 Calling FoFJK, ICntrl=  10002127 FMM=F ISym2X=0 I1Cent= 0 IOpClX= 0 NMat=1 NMatS=1 NMatT=0.
 ***** Axes restored to original set *****
 -------------------------------------------------------------------
 Center     Atomic                   Forces (Hartrees/Bohr)
 Number     Number              X              Y              Z
 -------------------------------------------------------------------
      1        7          -0.000036687    0.000033245    0.000040128
      2        1           0.000005327   -0.000016275    0.000011918
      3        6           0.000030156   -0.000048951   -0.000053371
      4        1           0.000001231   -0.000005713    0.000012984
      5        1          -0.000012133   -0.000008027   -0.000002068
      6        6          -0.000001995    0.000060343   -0.000009008
      7        1           0.000019008   -0.000010415    0.000001301
      8        1           0.000006012   -0.000007181    0.000006193
      9        6          -0.000094954    0.000017400    0.000054060
     10        1           0.000033795    0.000004570   -0.000006959
     11        1           0.000011882    0.000006192   -0.000004066
     12        6           0.000069467   -0.000089086   -0.000074648
     13        1          -0.000010924    0.000033084    0.000014126
     14        1          -0.000020185    0.000030813    0.000009410
 -------------------------------------------------------------------
 Cartesian Forces:  Max     0.000094954 RMS     0.000034584

 GradGradGradGradGradGradGradGradGradGradGradGradGradGradGradGradGradGrad
 Berny optimization.
 Using GEDIIS/GDIIS optimizer.
 FormGI is forming the generalized inverse of G from B-inverse, IUseBI=4.
 Internal  Forces:  Max     0.000037505 RMS     0.000013227
 Search for a local minimum.
 Step number   2 out of a maximum of   90 on scan point     1 out of     7
 All quantities printed in internal units (Hartrees-Bohrs-Radians)
 Mixed Optimization -- En-DIIS/RFO-DIIS
 Swapping is turned off.
 Update second derivatives using D2CorX and points    1    2
 DE= -2.43D-06 DEPred=-2.44D-06 R= 9.98D-01
 TightC=F SS=  1.41D+00  RLast= 4.72D-03 DXNew= 5.0454D-01 1.4149D-02
 Trust test= 9.98D-01 RLast= 4.72D-03 DXMaxT set to 3.00D-01
 ITU=  1  0
     Eigenvalues ---    0.00752   0.01322   0.02317   0.02351   0.04343
     Eigenvalues ---    0.04709   0.04950   0.05387   0.05518   0.05773
     Eigenvalues ---    0.05997   0.06791   0.06895   0.08242   0.08783
     Eigenvalues ---    0.08940   0.09393   0.11012   0.11561   0.20385
     Eigenvalues ---    0.21259   0.26282   0.27015   0.27390   0.33023
     Eigenvalues ---    0.33705   0.34139   0.34226   0.34290   0.34298
     Eigenvalues ---    0.34350   0.34367   0.34376   0.34927   0.44080
     Eigenvalues --- 1000.000001000.000001000.000001000.000001000.00000
     Eigenvalues --- 1000.000001000.000001000.000001000.000001000.00000
     Eigenvalues --- 1000.000001000.000001000.000001000.000001000.00000
     Eigenvalues --- 1000.000001000.000001000.000001000.000001000.00000
     Eigenvalues --- 1000.000001000.000001000.000001000.000001000.00000
     Eigenvalues --- 1000.000001000.000001000.000001000.000001000.00000
     Eigenvalues --- 1000.000001000.000001000.000001000.000001000.00000
     Eigenvalues --- 1000.000001000.000001000.000001000.000001000.00000
     Eigenvalues --- 1000.000001000.000001000.000001000.000001000.00000
 En-DIIS/RFO-DIIS/Sim-DIIS IScMMF=       -3 using points:     2    1
 RFO step:  Lambda=-1.33911972D-07.
 DidBck=F Rises=F RFO-DIIS coefs:    0.97092    0.02908
 Iteration  1 RMS(Cart)=  0.00018981 RMS(Int)=  0.00000003
 Iteration  2 RMS(Cart)=  0.00000003 RMS(Int)=  0.00000002
 Iteration  1 RMS(Cart)=  0.00000000 RMS(Int)=  0.00000000
 Variable       Old X    -DE/DX   Delta X   Delta X   Delta X     New X
                                 (Linear)    (Quad)   (Total)
    R1        1.93199   0.00001   0.00002  -0.00001   0.00001   1.93200
    R2        2.77708   0.00002  -0.00001   0.00008   0.00007   2.77716
    R3        2.77701   0.00001  -0.00003   0.00008   0.00005   2.77706
    R4        2.06686  -0.00000   0.00007  -0.00013  -0.00007   2.06679
    R5        2.07132   0.00001  -0.00005   0.00011   0.00006   2.07138
    R6        2.92018  -0.00003   0.00000  -0.00014  -0.00013   2.92005
    R7        2.06840   0.00001   0.00001   0.00002   0.00003   2.06843
    R8        2.06765  -0.00001  -0.00003   0.00004   0.00001   2.06766
    R9        2.92459   0.00001  -0.00001   0.00006   0.00005   2.92464
   R10        2.06839   0.00001  -0.00002   0.00007   0.00005   2.06845
   R11        2.06763  -0.00000   0.00002  -0.00004  -0.00002   2.06761
   R12        2.92033  -0.00004   0.00003  -0.00018  -0.00015   2.92018
   R13        2.06688  -0.00001   0.00001  -0.00004  -0.00003   2.06685
   R14        2.07132   0.00000  -0.00001   0.00003   0.00002   2.07134
    A1        1.88089   0.00001  -0.00000   0.00012   0.00012   1.88101
    A2        1.88109  -0.00000   0.00001  -0.00011  -0.00010   1.88098
    A3        1.79298  -0.00003  -0.00000  -0.00018  -0.00018   1.79279
    A4        1.93106  -0.00002  -0.00001  -0.00011  -0.00012   1.93094
    A5        1.87757  -0.00001   0.00001  -0.00007  -0.00007   1.87750
    A6        1.86669   0.00002   0.00000   0.00005   0.00006   1.86675
    A7        1.87820   0.00001  -0.00000   0.00011   0.00011   1.87831
    A8        1.98392  -0.00001  -0.00002  -0.00002  -0.00004   1.98389
    A9        1.92406   0.00000   0.00002   0.00004   0.00006   1.92412
   A10        1.92614   0.00002   0.00001   0.00016   0.00017   1.92631
   A11        1.95621   0.00001  -0.00002   0.00013   0.00012   1.95633
   A12        1.81542  -0.00003  -0.00001  -0.00014  -0.00016   1.81527
   A13        1.86958  -0.00001   0.00001  -0.00004  -0.00003   1.86955
   A14        1.93269   0.00000   0.00000  -0.00004  -0.00004   1.93265
   A15        1.96486   0.00000   0.00001  -0.00006  -0.00004   1.96481
   A16        1.93286  -0.00002   0.00001  -0.00023  -0.00022   1.93264
   A17        1.96493  -0.00002   0.00000  -0.00014  -0.00014   1.96479
   A18        1.81521   0.00002   0.00000   0.00008   0.00008   1.81529
   A19        1.86962   0.00000   0.00001  -0.00007  -0.00006   1.86956
   A20        1.92614   0.00001  -0.00000   0.00027   0.00026   1.92640
   A21        1.95615  -0.00000  -0.00002   0.00010   0.00008   1.95624
   A22        1.86686   0.00000  -0.00001  -0.00007  -0.00008   1.86679
   A23        1.93126  -0.00003  -0.00001  -0.00029  -0.00030   1.93097
   A24        1.87771  -0.00002  -0.00000  -0.00025  -0.00025   1.87746
   A25        1.98366   0.00002  -0.00000   0.00021   0.00021   1.98388
   A26        1.92380   0.00002   0.00002   0.00027   0.00029   1.92409
   A27        1.87822  -0.00000   0.00000   0.00009   0.00009   1.87832
    D1       -0.85086  -0.00001   0.00001  -0.00041  -0.00040  -0.85126
    D2       -2.89797  -0.00000   0.00001  -0.00044  -0.00043  -2.89839
    D3        1.31837  -0.00002  -0.00002  -0.00047  -0.00049   1.31788
    D4       -2.83436   0.00000  -0.00000  -0.00025  -0.00025  -2.83462
    D5        1.40171   0.00000   0.00000  -0.00028  -0.00028   1.40144
    D6       -0.66514  -0.00001  -0.00003  -0.00031  -0.00034  -0.66548
    D7       -1.31838  -0.00000   0.00002   0.00025   0.00027  -1.31812
    D8        0.85076   0.00001   0.00000   0.00029   0.00030   0.85106
    D9        2.89809  -0.00002  -0.00000   0.00010   0.00010   2.89819
   D10        0.66498  -0.00000   0.00002   0.00026   0.00028   0.66526
   D11        2.83412   0.00001   0.00001   0.00030   0.00031   2.83443
   D12       -1.40173  -0.00002  -0.00000   0.00011   0.00011  -1.40162
   D13       -1.66497   0.00001   0.00001   0.00027   0.00028  -1.66469
   D14        2.53603   0.00000   0.00001   0.00012   0.00013   2.53617
   D15        0.40861   0.00001   0.00001   0.00021   0.00022   0.40883
   D16        0.47155   0.00000  -0.00001   0.00015   0.00014   0.47169
   D17       -1.61064  -0.00001  -0.00001   0.00000  -0.00001  -1.61064
   D18        2.54513  -0.00000  -0.00001   0.00009   0.00008   2.54521
   D19        2.58191   0.00001  -0.00001   0.00030   0.00029   2.58220
   D20        0.49972  -0.00000  -0.00001   0.00016   0.00015   0.49987
   D21       -1.62770   0.00000  -0.00001   0.00025   0.00024  -1.62747
   D22       -2.06935  -0.00002   0.00000  -0.00025  -0.00025  -2.06960
   D23        2.12121   0.00000  -0.00002   0.00010   0.00008   2.12128
   D24       -0.00031   0.00000   0.00000   0.00000   0.00000  -0.00031
   D25       -0.00026  -0.00001   0.00001  -0.00017  -0.00016  -0.00042
   D26       -2.09289   0.00001  -0.00001   0.00018   0.00016  -2.09272
   D27        2.06878   0.00001   0.00000   0.00008   0.00009   2.06887
   D28        2.09215  -0.00002   0.00002  -0.00029  -0.00027   2.09189
   D29       -0.00047   0.00001   0.00000   0.00006   0.00006  -0.00041
   D30       -2.12199   0.00000   0.00002  -0.00004  -0.00002  -2.12201
   D31       -0.40811  -0.00001  -0.00001  -0.00019  -0.00021  -0.40832
   D32       -2.54484   0.00001   0.00001   0.00008   0.00008  -2.54475
   D33        1.62833  -0.00002  -0.00001  -0.00039  -0.00040   1.62793
   D34        1.66554  -0.00001  -0.00001  -0.00028  -0.00029   1.66525
   D35       -0.47119   0.00001   0.00001  -0.00001  -0.00000  -0.47119
   D36       -2.58121  -0.00002  -0.00000  -0.00048  -0.00048  -2.58169
   D37       -2.53546  -0.00000  -0.00001  -0.00013  -0.00013  -2.53560
   D38        1.61100   0.00002   0.00001   0.00014   0.00016   1.61116
   D39       -0.49902  -0.00001  -0.00000  -0.00032  -0.00032  -0.49934
         Item               Value     Threshold  Converged?
 Maximum Force            0.000038     0.000450     YES
 RMS     Force            0.000013     0.000300     YES
 Maximum Displacement     0.000796     0.001800     YES
 RMS     Displacement     0.000190     0.001200     YES
 Predicted change in Energy=-6.696017D-08
 Optimization completed.
    -- Stationary point found.
                           ----------------------------
                           !   Optimized Parameters   !
                           ! (Angstroms and Degrees)  !
 --------------------------                            --------------------------
 ! Name  Definition              Value          Derivative Info.                !
 --------------------------------------------------------------------------------
 ! R1    R(1,2)                  1.0224         -DE/DX =    0.0                 !
 ! R2    R(1,3)                  1.4696         -DE/DX =    0.0                 !
 ! R3    R(1,12)                 1.4695         -DE/DX =    0.0                 !
 ! R4    R(3,4)                  1.0937         -DE/DX =    0.0                 !
 ! R5    R(3,5)                  1.0961         -DE/DX =    0.0                 !
 ! R6    R(3,6)                  1.5453         -DE/DX =    0.0                 !
 ! R7    R(6,7)                  1.0946         -DE/DX =    0.0                 !
 ! R8    R(6,8)                  1.0942         -DE/DX =    0.0                 !
 ! R9    R(6,9)                  1.5476         -DE/DX =    0.0                 !
 ! R10   R(9,10)                 1.0945         -DE/DX =    0.0                 !
 ! R11   R(9,11)                 1.0941         -DE/DX =    0.0                 !
 ! R12   R(9,12)                 1.5454         -DE/DX =    0.0                 !
 ! R13   R(12,13)                1.0937         -DE/DX =    0.0                 !
 ! R14   R(12,14)                1.0961         -DE/DX =    0.0                 !
 ! A1    A(2,1,3)              107.767          -DE/DX =    0.0                 !
 ! A2    A(2,1,12)             107.7783         -DE/DX =    0.0                 !
 ! A3    A(3,1,12)             102.7299         -DE/DX =    0.0                 !
 ! A4    A(1,3,4)              110.6417         -DE/DX =    0.0                 !
 ! A5    A(1,3,5)              107.5766         -DE/DX =    0.0                 !
 ! A6    A(1,3,6)              106.9537         -DE/DX =    0.0                 !
 ! A7    A(4,3,5)              107.6128         -DE/DX =    0.0                 !
 ! A8    A(4,3,6)              113.6704         -DE/DX =    0.0                 !
 ! A9    A(5,3,6)              110.2405         -DE/DX =    0.0                 !
 ! A10   A(3,6,7)              110.36           -DE/DX =    0.0                 !
 ! A11   A(3,6,8)              112.0828         -DE/DX =    0.0                 !
 ! A12   A(3,6,9)              104.016          -DE/DX =    0.0                 !
 ! A13   A(7,6,8)              107.1191         -DE/DX =    0.0                 !
 ! A14   A(7,6,9)              110.7351         -DE/DX =    0.0                 !
 ! A15   A(8,6,9)              112.5779         -DE/DX =    0.0                 !
 ! A16   A(6,9,10)             110.7447         -DE/DX =    0.0                 !
 ! A17   A(6,9,11)             112.5824         -DE/DX =    0.0                 !
 ! A18   A(6,9,12)             104.0038         -DE/DX =    0.0                 !
 ! A19   A(10,9,11)            107.1211         -DE/DX =    0.0                 !
 ! A20   A(10,9,12)            110.3595         -DE/DX =    0.0                 !
 ! A21   A(11,9,12)            112.0794         -DE/DX =    0.0                 !
 ! A22   A(1,12,9)             106.9633         -DE/DX =    0.0                 !
 ! A23   A(1,12,13)            110.6533         -DE/DX =    0.0                 !
 ! A24   A(1,12,14)            107.5846         -DE/DX =    0.0                 !
 ! A25   A(9,12,13)            113.6555         -DE/DX =    0.0                 !
 ! A26   A(9,12,14)            110.2258         -DE/DX =    0.0                 !
 ! A27   A(13,12,14)           107.6142         -DE/DX =    0.0                 !
 ! D1    D(2,1,3,4)            -48.7506         -DE/DX =    0.0                 !
 ! D2    D(2,1,3,5)           -166.0412         -DE/DX =    0.0                 !
 ! D3    D(2,1,3,6)             75.537          -DE/DX =    0.0                 !
 ! D4    D(12,1,3,4)          -162.3971         -DE/DX =    0.0                 !
 ! D5    D(12,1,3,5)            80.3122         -DE/DX =    0.0                 !
 ! D6    D(12,1,3,6)           -38.1095         -DE/DX =    0.0                 !
 ! D7    D(2,1,12,9)           -75.5377         -DE/DX =    0.0                 !
 ! D8    D(2,1,12,13)           48.745          -DE/DX =    0.0                 !
 ! D9    D(2,1,12,14)          166.0484         -DE/DX =    0.0                 !
 ! D10   D(3,1,12,9)            38.1006         -DE/DX =    0.0                 !
 ! D11   D(3,1,12,13)          162.3833         -DE/DX =    0.0                 !
 ! D12   D(3,1,12,14)          -80.3133         -DE/DX =    0.0                 !
 ! D13   D(1,3,6,7)            -95.3956         -DE/DX =    0.0                 !
 ! D14   D(1,3,6,8)            145.3039         -DE/DX =    0.0                 !
 ! D15   D(1,3,6,9)             23.4117         -DE/DX =    0.0                 !
 ! D16   D(4,3,6,7)             27.0178         -DE/DX =    0.0                 !
 ! D17   D(4,3,6,8)            -92.2826         -DE/DX =    0.0                 !
 ! D18   D(4,3,6,9)            145.8251         -DE/DX =    0.0                 !
 ! D19   D(5,3,6,7)            147.9323         -DE/DX =    0.0                 !
 ! D20   D(5,3,6,8)             28.6318         -DE/DX =    0.0                 !
 ! D21   D(5,3,6,9)            -93.2605         -DE/DX =    0.0                 !
 ! D22   D(3,6,9,10)          -118.5651         -DE/DX =    0.0                 !
 ! D23   D(3,6,9,11)           121.5362         -DE/DX =    0.0                 !
 ! D24   D(3,6,9,12)            -0.0176         -DE/DX =    0.0                 !
 ! D25   D(7,6,9,10)            -0.0149         -DE/DX =    0.0                 !
 ! D26   D(7,6,9,11)          -119.9136         -DE/DX =    0.0                 !
 ! D27   D(7,6,9,12)           118.5326         -DE/DX =    0.0                 !
 ! D28   D(8,6,9,10)           119.8715         -DE/DX =    0.0                 !
 ! D29   D(8,6,9,11)            -0.0272         -DE/DX =    0.0                 !
 ! D30   D(8,6,9,12)          -121.581          -DE/DX =    0.0                 !
 ! D31   D(6,9,12,1)           -23.3832         -DE/DX =    0.0                 !
 ! D32   D(6,9,12,13)         -145.8085         -DE/DX =    0.0                 !
 ! D33   D(6,9,12,14)           93.2963         -DE/DX =    0.0                 !
 ! D34   D(10,9,12,1)           95.4283         -DE/DX =    0.0                 !
 ! D35   D(10,9,12,13)         -26.997          -DE/DX =    0.0                 !
 ! D36   D(10,9,12,14)        -147.8922         -DE/DX =    0.0                 !
 ! D37   D(11,9,12,1)         -145.2713         -DE/DX =    0.0                 !
 ! D38   D(11,9,12,13)          92.3034         -DE/DX =    0.0                 !
 ! D39   D(11,9,12,14)         -28.5918         -DE/DX =    0.0                 !
 --------------------------------------------------------------------------------
 Iteration  1 RMS(Cart)=  0.00931249 RMS(Int)=  0.02679977
 Iteration  2 RMS(Cart)=  0.00163641 RMS(Int)=  0.02667600
 Iteration  3 RMS(Cart)=  0.00028575 RMS(Int)=  0.02666414
 Iteration  4 RMS(Cart)=  0.00004990 RMS(Int)=  0.02666236
 Iteration  5 RMS(Cart)=  0.00000871 RMS(Int)=  0.02666206
 Iteration  6 RMS(Cart)=  0.00000152 RMS(Int)=  0.02666201
 Iteration  7 RMS(Cart)=  0.00000027 RMS(Int)=  0.02666200
 Iteration  1 RMS(Cart)=  0.00932450 RMS(Int)=  0.02245387
 Iteration  2 RMS(Cart)=  0.00870165 RMS(Int)=  0.02370575
 Iteration  3 RMS(Cart)=  0.00723592 RMS(Int)=  0.02687561
 Iteration  4 RMS(Cart)=  0.00601706 RMS(Int)=  0.03053462
 Iteration  5 RMS(Cart)=  0.00500135 RMS(Int)=  0.03404927
 Iteration  6 RMS(Cart)=  0.00415440 RMS(Int)=  0.03719730
 Iteration  7 RMS(Cart)=  0.00344837 RMS(Int)=  0.03992713
 Iteration  8 RMS(Cart)=  0.00286024 RMS(Int)=  0.04225418
 Iteration  9 RMS(Cart)=  0.00237079 RMS(Int)=  0.04421822
 Iteration 10 RMS(Cart)=  0.00196387 RMS(Int)=  0.04586557
 Iteration 11 RMS(Cart)=  0.00162589 RMS(Int)=  0.04724159
 Iteration 12 RMS(Cart)=  0.00134542 RMS(Int)=  0.04838767
 Iteration 13 RMS(Cart)=  0.00111288 RMS(Int)=  0.04934028
 Iteration 14 RMS(Cart)=  0.00092020 RMS(Int)=  0.05013087
 Iteration 15 RMS(Cart)=  0.00076065 RMS(Int)=  0.05078624
 Iteration 16 RMS(Cart)=  0.00062860 RMS(Int)=  0.05132905
 Iteration 17 RMS(Cart)=  0.00051937 RMS(Int)=  0.05177832
 Iteration 18 RMS(Cart)=  0.00042904 RMS(Int)=  0.05214996
 Iteration 19 RMS(Cart)=  0.00035437 RMS(Int)=  0.05245727
 Iteration 20 RMS(Cart)=  0.00029266 RMS(Int)=  0.05271128
 Iteration 21 RMS(Cart)=  0.00024167 RMS(Int)=  0.05292120
 Iteration 22 RMS(Cart)=  0.00019955 RMS(Int)=  0.05309462
 Iteration 23 RMS(Cart)=  0.00016476 RMS(Int)=  0.05323788
 Iteration 24 RMS(Cart)=  0.00013602 RMS(Int)=  0.05335619
 Iteration 25 RMS(Cart)=  0.00011229 RMS(Int)=  0.05345390
 Iteration 26 RMS(Cart)=  0.00009270 RMS(Int)=  0.05353458
 Iteration 27 RMS(Cart)=  0.00007652 RMS(Int)=  0.05360119
 Iteration 28 RMS(Cart)=  0.00006317 RMS(Int)=  0.05365619
 Iteration 29 RMS(Cart)=  0.00005214 RMS(Int)=  0.05370160
 Iteration 30 RMS(Cart)=  0.00004304 RMS(Int)=  0.05373908
 Iteration 31 RMS(Cart)=  0.00003553 RMS(Int)=  0.05377002
 Iteration 32 RMS(Cart)=  0.00002932 RMS(Int)=  0.05379557
 Iteration 33 RMS(Cart)=  0.00002420 RMS(Int)=  0.05381665
 Iteration 34 RMS(Cart)=  0.00001998 RMS(Int)=  0.05383405
 Iteration 35 RMS(Cart)=  0.00001649 RMS(Int)=  0.05384842
 Iteration 36 RMS(Cart)=  0.00001361 RMS(Int)=  0.05386028
 Iteration 37 RMS(Cart)=  0.00001123 RMS(Int)=  0.05387007
 Iteration 38 RMS(Cart)=  0.00000927 RMS(Int)=  0.05387814
 Iteration 39 RMS(Cart)=  0.00000765 RMS(Int)=  0.05388481
 Iteration 40 RMS(Cart)=  0.00000632 RMS(Int)=  0.05389032
 Iteration 41 RMS(Cart)=  0.00000521 RMS(Int)=  0.05389486
 Iteration 42 RMS(Cart)=  0.00000430 RMS(Int)=  0.05389861
 Iteration 43 RMS(Cart)=  0.00000355 RMS(Int)=  0.05390170
 Iteration 44 RMS(Cart)=  0.00000293 RMS(Int)=  0.05390426
 Iteration 45 RMS(Cart)=  0.00000242 RMS(Int)=  0.05390636
 Iteration 46 RMS(Cart)=  0.00000200 RMS(Int)=  0.05390810
 Iteration 47 RMS(Cart)=  0.00000165 RMS(Int)=  0.05390954
 Iteration 48 RMS(Cart)=  0.00000136 RMS(Int)=  0.05391073
 Iteration 49 RMS(Cart)=  0.00000112 RMS(Int)=  0.05391170
 Iteration 50 RMS(Cart)=  0.00000093 RMS(Int)=  0.05391251
 GradGradGradGradGradGradGradGradGradGradGradGradGradGradGradGradGradGrad

                          Input orientation:                          
 ---------------------------------------------------------------------
 Center     Atomic      Atomic             Coordinates (Angstroms)
 Number     Number       Type             X           Y           Z
 ---------------------------------------------------------------------
      1          7           0        0.861775    0.471685    0.917087
      2          1           0        1.365293    0.438652    1.806472
      3          6           0        1.681553    1.132469   -0.061048
      4          1           0        2.087405    2.088257    0.282627
      5          1           0        0.974206    1.336031   -0.873486
      6          6           0        2.739437    0.150419   -0.580905
      7          1           0        3.653990    0.402725   -0.034950
      8          1           0        2.977185    0.188643   -1.648272
      9          6           0        2.257062   -1.212565   -0.031133
     10          1           0        2.908029   -1.644918    0.735353
     11          1           0        2.212961   -1.924981   -0.860413
     12          6           0        0.798539   -0.954557    0.408284
     13          1           0        0.471998   -1.598074    1.230258
     14          1           0        0.077565   -1.086786   -0.406873
 ---------------------------------------------------------------------
                    Distance matrix (angstroms):
                    1          2          3          4          5
     1  N    0.000000
     2  H    1.022559   0.000000
     3  C    1.437157   2.017185   0.000000
     4  H    2.125562   2.358971   1.093782   0.000000
     5  H    1.991453   2.853141   1.096281   1.772470   0.000000
     6  C    2.423388   2.769642   1.534208   2.219471   2.146467
     7  H    2.950863   2.937730   2.103263   2.322943   2.958960
     8  H    3.337085   3.820465   2.255826   2.851072   2.434895
     9  C    2.383830   2.626511   2.414807   3.320038   2.974999
    10  H    2.949608   2.805101   3.138850   3.849023   3.900524
    11  H    3.275548   3.663001   3.204587   4.174731   3.488392
    12  C    1.515601   2.053575   2.314231   3.306914   2.630701
    13  H    2.129297   2.297445   3.253669   4.134801   3.645123
    14  H    2.190134   2.980620   2.759976   3.820440   2.625212
                    6          7          8          9         10
     6  C    0.000000
     7  H    1.094592   0.000000
     8  H    1.094192   1.762584   0.000000
     9  C    1.546822   2.135552   2.257675   0.000000
    10  H    2.232530   2.311420   3.008055   1.094618   0.000000
    11  H    2.159302   2.859399   2.381630   1.094160   1.762959
    12  C    2.442653   3.192534   3.206684   1.544974   2.243551
    13  H    3.388041   3.965983   4.213580   2.219500   2.486237
    14  H    2.940498   3.892015   3.402291   2.215222   3.102857
                   11         12         13         14
    11  H    0.000000
    12  C    2.133519   0.000000
    13  H    2.740206   1.093794   0.000000
    14  H    2.338415   1.096252   1.759883   0.000000
 Stoichiometry    C4H9N
 Framework group  C1[X(C4H9N)]
 Deg. of freedom    36
 Full point group                 C1      NOp   1
 Largest Abelian subgroup         C1      NOp   1
 Largest concise Abelian subgroup C1      NOp   1
                         Standard orientation:                         
 ---------------------------------------------------------------------
 Center     Atomic      Atomic             Coordinates (Angstroms)
 Number     Number       Type             X           Y           Z
 ---------------------------------------------------------------------
      1          7           0       -0.122767   -1.253431   -0.216478
      2          1           0       -0.192140   -1.283607   -1.236235
      3          6           0        1.090093   -0.575496    0.150665
      4          1           0        1.976077   -0.953379   -0.367598
      5          1           0        1.190536   -0.816539    1.215390
      6          6           0        0.882634    0.938926    0.019205
      7          1           0        1.338786    1.206041   -0.939287
      8          1           0        1.337659    1.575348    0.784173
      9          6           0       -0.647323    1.071423   -0.166092
     10          1           0       -0.952587    1.415359   -1.159425
     11          1           0       -1.022830    1.798840    0.559887
     12          6           0       -1.205802   -0.305262    0.257922
     13          1           0       -2.139147   -0.569935   -0.247251
     14          1           0       -1.394600   -0.375649    1.335497
 ---------------------------------------------------------------------
 Rotational constants (GHZ):           6.8337583           6.7580148           3.9420142
 Standard basis: 6-31G(d) (6D, 7F)
 There are    93 symmetry adapted cartesian basis functions of A   symmetry.
 There are    93 symmetry adapted basis functions of A   symmetry.
    93 basis functions,   176 primitive gaussians,    93 cartesian basis functions
    20 alpha electrons       20 beta electrons
       nuclear repulsion energy       190.2034084181 Hartrees.
 NAtoms=   14 NActive=   14 NUniq=   14 SFac= 1.00D+00 NAtFMM=   60 NAOKFM=F Big=F
 Integral buffers will be    131072 words long.
 Raffenetti 1 integral format.
 Two-electron integral symmetry is turned on.
 One-electron integrals computed using PRISM.
 NBasis=    93 RedAO= T EigKep=  3.03D-03  NBF=    93
 NBsUse=    93 1.00D-06 EigRej= -1.00D+00 NBFU=    93
 Initial guess from the checkpoint file:  "PRLD.scan5.pos.chk"
 B after Tr=     0.000000   -0.000000    0.000000
         Rot=    0.998396    0.001574    0.004615    0.056409 Ang=   6.49 deg.
 Keep R1 ints in memory in canonical form, NReq=10436257.
 Requested convergence on RMS density matrix=1.00D-08 within 128 cycles.
 Requested convergence on MAX density matrix=1.00D-06.
 Requested convergence on             energy=1.00D-06.
 No special actions if energy rises.
 SCF Done:  E(RHF) =  -211.131049789     A.U. after   11 cycles
            NFock= 11  Conv=0.57D-08     -V/T= 2.0014
 ExpMin= 1.61D-01 ExpMax= 4.17D+03 ExpMxC= 6.27D+02 IAcc=3 IRadAn=         5 AccDes= 0.00D+00
 HarFok:  IExCor=  205 AccDes= 0.00D+00 IRadAn=         5 IDoV=-2 UseB2=F ITyADJ=14
 ICtDFT= 12500011 ScaDFX=  1.000000  1.000000  1.000000  1.000000
 Range of M.O.s used for correlation:     6    93
 NBasis=    93 NAE=    20 NBE=    20 NFC=     5 NFV=     0
 NROrb=     88 NOA=    15 NOB=    15 NVA=    73 NVB=    73
 Fully direct method using O(ONN) memory.
 JobTyp=1 Pass  1:  I=   6 to  20 NPSUse=  1 ParTrn=F ParDer=F DoDerP=T.
 Spin components of T(2) and E(2):
     alpha-alpha T2 =       0.2800710352D-01 E2=     -0.8424524762D-01
     alpha-beta  T2 =       0.1685065256D+00 E2=     -0.5169368015D+00
     beta-beta   T2 =       0.2800710352D-01 E2=     -0.8424524762D-01
 ANorm=    0.1106580649D+01
 E2 =    -0.6854272968D+00 EUMP2 =    -0.21181647708587D+03
          IDoAtm=11111111111111
          Differentiating once with respect to electric field.
                with respect to dipole field.
          Differentiating once with respect to nuclear coordinates.
 Keep R1 ints in memory in canonical form, NReq=10438743.
          There are     1 degrees of freedom in the 1st order CPHF.  IDoFFX=0 NUNeed=     1.
 LinEq1:  Iter=  0 NonCon=     1 RMS=4.27D-03 Max=3.74D-02 NDo=     1
 AX will form     1 AO Fock derivatives at one time.
 LinEq1:  Iter=  1 NonCon=     1 RMS=1.43D-03 Max=1.12D-02 NDo=     1
 LinEq1:  Iter=  2 NonCon=     1 RMS=2.92D-04 Max=2.80D-03 NDo=     1
 LinEq1:  Iter=  3 NonCon=     1 RMS=5.63D-05 Max=4.58D-04 NDo=     1
 LinEq1:  Iter=  4 NonCon=     1 RMS=1.17D-05 Max=1.42D-04 NDo=     1
 LinEq1:  Iter=  5 NonCon=     1 RMS=4.11D-06 Max=3.22D-05 NDo=     1
 LinEq1:  Iter=  6 NonCon=     1 RMS=1.07D-06 Max=1.55D-05 NDo=     1
 LinEq1:  Iter=  7 NonCon=     1 RMS=2.41D-07 Max=1.89D-06 NDo=     1
 LinEq1:  Iter=  8 NonCon=     1 RMS=8.18D-08 Max=6.95D-07 NDo=     1
 LinEq1:  Iter=  9 NonCon=     1 RMS=1.59D-08 Max=1.28D-07 NDo=     1
 LinEq1:  Iter= 10 NonCon=     1 RMS=4.13D-09 Max=2.17D-08 NDo=     1
 LinEq1:  Iter= 11 NonCon=     1 RMS=7.75D-10 Max=7.84D-09 NDo=     1
 LinEq1:  Iter= 12 NonCon=     1 RMS=2.20D-10 Max=1.92D-09 NDo=     1
 LinEq1:  Iter= 13 NonCon=     0 RMS=6.62D-11 Max=4.48D-10 NDo=     1
 Linear equations converged to 1.000D-10 1.000D-09 after    13 iterations.
 End of Minotr F.D. properties file   721 does not exist.
 End of Minotr F.D. properties file   722 does not exist.
 End of Minotr F.D. properties file   788 does not exist.
 Calling FoFJK, ICntrl=  10002127 FMM=F ISym2X=0 I1Cent= 0 IOpClX= 0 NMat=1 NMatS=1 NMatT=0.
 ***** Axes restored to original set *****
 -------------------------------------------------------------------
 Center     Atomic                   Forces (Hartrees/Bohr)
 Number     Number              X              Y              Z
 -------------------------------------------------------------------
      1        7          -0.016122459   -0.022796967    0.009762435
      2        1          -0.000788612   -0.002574848    0.000327246
      3        6          -0.013843511    0.009411466   -0.031745180
      4        1          -0.001099437   -0.001502117    0.002585637
      5        1           0.003515873    0.007988404   -0.004347651
      6        6           0.019094277   -0.000724788    0.032113521
      7        1           0.007046010   -0.001077581   -0.006118482
      8        1          -0.006862297   -0.000827504    0.000909047
      9        6          -0.015771392   -0.012867660   -0.035082945
     10        1          -0.004330507    0.004980096    0.003025857
     11        1           0.006654055   -0.006489738    0.000982237
     12        6           0.019944135    0.018393204    0.028722817
     13        1          -0.000243714   -0.000989235   -0.000233080
     14        1           0.002807578    0.009077267   -0.000901459
 -------------------------------------------------------------------
 Cartesian Forces:  Max     0.035082945 RMS     0.013135921

 GradGradGradGradGradGradGradGradGradGradGradGradGradGradGradGradGradGrad
 Berny optimization.
 FormGI is forming the generalized inverse of G from B-inverse, IUseBI=4.
 Internal  Forces:  Max     0.020538242 RMS     0.005614202
 Search for a local minimum.
 Step number   1 out of a maximum of   90 on scan point     2 out of     7
 All quantities printed in internal units (Hartrees-Bohrs-Radians)
 Mixed Optimization -- RFO/linear search
 Second derivative matrix not updated -- first step.
 ITU=  0
     Eigenvalues ---    0.00756   0.01287   0.02279   0.02319   0.04067
     Eigenvalues ---    0.04649   0.05243   0.05350   0.05619   0.05747
     Eigenvalues ---    0.06034   0.06788   0.06885   0.08254   0.08513
     Eigenvalues ---    0.09046   0.09513   0.10937   0.11730   0.20308
     Eigenvalues ---    0.20941   0.26267   0.26926   0.27175   0.33118
     Eigenvalues ---    0.33642   0.34138   0.34225   0.34288   0.34295
     Eigenvalues ---    0.34335   0.34363   0.34371   0.34955   0.44079
     Eigenvalues --- 1000.000001000.000001000.000001000.000001000.00000
     Eigenvalues --- 1000.000001000.000001000.000001000.000001000.00000
     Eigenvalues --- 1000.000001000.000001000.000001000.000001000.00000
     Eigenvalues --- 1000.000001000.000001000.000001000.000001000.00000
     Eigenvalues --- 1000.000001000.000001000.000001000.000001000.00000
     Eigenvalues --- 1000.000001000.000001000.000001000.000001000.00000
     Eigenvalues --- 1000.000001000.000001000.000001000.000001000.00000
     Eigenvalues --- 1000.000001000.000001000.000001000.000001000.00000
     Eigenvalues --- 1000.000001000.000001000.000001000.000001000.00000
 RFO step:  Lambda=-1.19333741D-02 EMin= 7.56186703D-03
[...]
           D1         -48.75056 -41.35127 -25.46006  21.68413  25.21758
           D2        -166.04123-158.21511-142.63858 -98.84268 -96.82389
           D3          75.53703  82.86399  97.27804 140.01872 142.80064
           D4        -162.39712-154.74821-139.25032 -98.89477 -94.26768
           D5          80.31220  88.38795 103.57117 140.57842 143.69085
           D6         -38.10954 -30.53295 -16.51222  19.43981  23.31538
           D7         -75.53773 -73.20024 -78.00297-111.55587-106.67688
           D8          48.74499  50.80031  45.97579  11.65117  15.85285
           D9         166.04841 168.61931 164.05601 130.09523 135.33017
           D10         38.10058  40.59683  36.36466   9.05543  13.57820
           D11        162.38330 164.59738 160.34342 132.26246 136.10793
           D12        -80.31328 -77.58362 -81.57636-109.29347-104.41474
           D13        -95.39558-111.55090-131.67311-162.41413-171.46443
           D14        145.30393 129.00553 108.52143  76.41777  65.53090
           D15         23.41168   9.05879  -9.21740 -40.19490 -50.95098
           D16         27.01785  10.68336 -10.59634 -41.98767 -51.18626
           D17        -92.28265-108.76021-130.40180-163.15577-174.19093
           D18        145.82511 131.29305 111.85937  80.23156  69.32720
           D19        147.93226 130.99779 109.18685  78.09758  72.09350
           D20         28.63176  11.55422 -10.61861 -43.07052 -50.91117
           D21        -93.26048-108.39252-128.35743-159.68319-167.39304
           D22       -118.56512-101.76028 -86.11031 -71.88337 -56.74279
           D23        121.53617 137.83778 152.56888 166.46001 179.74297
           D24         -0.01762  14.98278  29.98164  44.98227  59.98306
           D25         -0.01490  19.05721  36.13213  49.42266  62.78894
           D26       -119.91360-101.34472 -85.18869 -72.23396 -60.72531
           D27        118.53260 135.80028 152.22408 166.28830 179.51478
           D28        119.87152 138.64665 155.89193 171.43046-173.20017
           D29         -0.02718  18.24471  34.57111  49.77384  63.28559
           D30       -121.58098-104.61029 -88.01613 -71.70390 -56.47432
           D31        -23.38316 -34.66343 -41.61468 -33.65927 -44.59141
           D32       -145.80848-156.54394-162.87366-155.42503-163.68383
           D33         93.29635  81.85780  75.34631  84.28757  72.74379
           D34         95.42833  82.94909  75.47003  82.61380  71.50248
           D35        -26.99699 -38.93143 -45.78895 -39.15195 -47.58994
           D36       -147.89217-160.52968-167.56898-159.43935-171.16232
           D37       -145.27125-157.25327-163.54516-155.65958-164.81348
           D38         92.30343  80.86621  75.19586  82.57467  76.09410
           D39        -28.59175 -40.73205 -46.58417 -37.71273 -47.47828
                           6         7
     Eigenvalues --    -0.78386  -0.72961
           R1           1.02059   1.02686
           R2           1.56340   1.67463
           R3           1.57173   1.68529
           R4           1.09321   1.08818
           R5           1.09351   1.09225
           R6           1.50603   1.48665
           R7           1.09825   1.10147
           R8           1.08745   1.08315
           R9           1.53890   1.55202
           R10          1.08811   1.08384
           R11          1.10007   1.10465
           R12          1.50327   1.48331
           R13          1.09514   1.09491
           R14          1.08953   1.08488
           A1         110.75567 109.28533
           A2         107.50878 103.51146
           A3         107.45551 106.14146
           A4         115.99126 117.04085
           A5         107.20530 103.79502
           A6          92.95951  86.50948
           A7         109.96068 111.77148
           A8         113.12562 116.18790
           A9         116.72366 118.61152
           A10        113.67466 114.43861
           A11        112.20825 112.30091
           A12         94.19816  92.49988
           A13        108.99947 108.81396
           A14        113.89373 112.93505
           A15        113.35141 115.26947
           A16        113.14141 115.22555
           A17        113.67807 112.59600
           A18         93.71114  92.32819
           A19        108.67503 108.10606
           A20        112.93210 113.50708
           A21        114.22707 114.64150
           A22         95.52335  88.98651
           A23        108.48338 106.01024
           A24        111.23524 111.46052
           A25        117.08704 118.88376
           A26        114.05721 117.18356
           A27        109.53256 111.26769
           D1          25.82140  21.36081
           D2         -97.44599-102.28947
           D3         143.38477 139.08836
           D4         -91.33567 -89.67543
           D5         145.39694 146.67429
           D6          26.22769  28.05213
           D7        -102.05132 -94.94195
           D8          18.92432  24.89467
           D9         139.46165 146.11123
           D10         17.20613  20.09221
           D11        138.18177 139.92884
           D12       -101.28090 -98.85460
           D13       -177.01094-179.60476
           D14         58.72843  55.69687
           D15        -58.61023 -62.97105
           D16        -57.06121 -61.07768
           D17        178.67816 174.22394
           D18         61.33950  55.55602
           D19         72.03367  76.57659
           D20        -52.22697 -48.12179
           D21       -169.56563-166.78970
           D22        -41.91257 -27.43273
           D23       -166.49866-152.05519
           D24         74.98177  89.98192
           D25         76.30890  90.48042
           D26        -48.27718 -34.14205
           D27       -166.79675-152.10493
           D28       -158.30352-143.57704
           D29         77.11039  91.80050
           D30        -41.40918 -26.16239
           D31        -52.46533 -57.17849
           D32       -166.49466-164.95374
           D33         63.74523  56.54147
           D34         64.60383  61.69127
           D35        -49.42550 -46.08398
           D36       -179.18561 175.41123
           D37       -170.53182-173.39254
           D38         75.43885  78.83221
           D39        -54.32126 -59.67258
 GradGradGradGradGradGradGradGradGradGradGradGradGradGradGradGradGradGrad

                          Input orientation:                          
 ---------------------------------------------------------------------
 Center     Atomic      Atomic             Coordinates (Angstroms)
 Number     Number       Type             X           Y           Z
 ---------------------------------------------------------------------
      1          7           0        0.676689    0.431121    0.491262
      2          1           0        0.517581    0.449401    1.505554
      3          6           0        2.133587    1.181365    0.146343
      4          1           0        2.857463    1.252053    0.955753
      5          1           0        1.838562    2.166949   -0.220535
      6          6           0        2.356942    0.091988   -0.840318
      7          1           0        3.311702    0.159535   -1.385383
      8          1           0        1.549490    0.015756   -1.558247
      9          6           0        2.366783   -0.998530    0.263958
     10          1           0        2.685672   -0.661265    1.243380
     11          1           0        2.977213   -1.876787   -0.012262
     12          6           0        0.901834   -1.205366    0.157442
     13          1           0        0.385270   -1.750022    0.954529
     14          1           0        0.508212   -1.469198   -0.818477
 ---------------------------------------------------------------------
                    Distance matrix (angstroms):
                    1          2          3          4          5
     1  N    0.000000
     2  H    1.026859   0.000000
     3  C    1.674630   2.234883   0.000000
     4  H    2.376017   2.534084   1.088182   0.000000
     5  H    2.206740   2.770261   1.092251   1.805227   0.000000
     6  C    2.170568   3.002351   1.486651   2.195939   2.226727
     7  H    3.246359   4.030962   2.185927   2.623137   2.748950
     8  H    2.266009   3.261865   2.146028   3.091831   2.549640
     9  C    2.225306   2.656617   2.195486   2.405093   3.245613
    10  H    2.407280   2.450088   2.214402   1.942428   3.295365
    11  H    3.297331   3.710082   3.176344   3.277352   4.206151
    12  C    1.685295   2.168712   2.685857   3.240478   3.520346
    13  H    2.248762   2.271254   3.507536   3.888984   4.339988
    14  H    2.314091   3.013674   3.255489   4.009000   3.917771
                    6          7          8          9         10
     6  C    0.000000
     7  H    1.101465   0.000000
     8  H    1.083149   1.776498   0.000000
     9  C    1.552015   2.225828   2.239905   0.000000
    10  H    2.239922   2.824185   3.098125   1.083839   0.000000
    11  H    2.224070   2.478700   2.830227   1.104653   1.771759
    12  C    2.189976   3.170289   2.203223   1.483308   2.158097
    13  H    3.240674   4.205426   3.284422   2.228907   2.561382
    14  H    2.419831   3.291460   1.958727   2.201699   3.105695
                   11         12         13         14
    11  H    0.000000
    12  C    2.187877   0.000000
    13  H    2.769282   1.094914   0.000000
    14  H    2.629083   1.084879   1.799313   0.000000
 Stoichiometry    C4H9N
 Framework group  C1[X(C4H9N)]
 Deg. of freedom    36
 Full point group                 C1      NOp   1
 Largest Abelian subgroup         C1      NOp   1
 Largest concise Abelian subgroup C1      NOp   1
                         Standard orientation:                         
 ---------------------------------------------------------------------
 Center     Atomic      Atomic             Coordinates (Angstroms)
 Number     Number       Type             X           Y           Z
 ---------------------------------------------------------------------
      1          7           0        0.006716   -1.224851    0.130366
      2          1           0       -0.192868   -1.809666   -0.689753
      3          6           0        1.325765   -0.246105   -0.196059
      4          1           0        1.562235   -0.067548   -1.243121
      5          1           0        2.149628   -0.736198    0.327459
      6          6           0        0.581437    0.834982    0.502050
      7          1           0        1.111079    1.799884    0.542938
      8          1           0        0.292399    0.552305    1.506919
      9          6           0       -0.562895    0.817139   -0.546252
     10          1           0       -0.275727    0.487414   -1.537979
     11          1           0       -1.065961    1.795906   -0.642150
     12          6           0       -1.327761   -0.199218    0.216770
     13          1           0       -2.147520   -0.727694   -0.280768
     14          1           0       -1.579551    0.038761    1.244842
 ---------------------------------------------------------------------
 Rotational constants (GHZ):           7.5385410           6.0188508           4.3181102

 **********************************************************************

            Population analysis using the SCF density.

 **********************************************************************

 Orbital symmetries:
       Occupied  (A) (A) (A) (A) (A) (A) (A) (A) (A) (A) (A) (A)
                 (A) (A) (A) (A) (A) (A) (A) (A)
       Virtual   (A) (A) (A) (A) (A) (A) (A) (A) (A) (A) (A) (A)
                 (A) (A) (A) (A) (A) (A) (A) (A) (A) (A) (A) (A)
                 (A) (A) (A) (A) (A) (A) (A) (A) (A) (A) (A) (A)
                 (A) (A) (A) (A) (A) (A) (A) (A) (A) (A) (A) (A)
                 (A) (A) (A) (A) (A) (A) (A) (A) (A) (A) (A) (A)
                 (A) (A) (A) (A) (A) (A) (A) (A) (A) (A) (A) (A)
                 (A)
 The electronic state is 1-A.
 Alpha  occ. eigenvalues --  -15.54451 -11.25668 -11.25333 -11.22286 -11.21905
 Alpha  occ. eigenvalues --   -1.17950  -0.99864  -0.96942  -0.81615  -0.79895
 Alpha  occ. eigenvalues --   -0.66320  -0.64127  -0.59348  -0.55209  -0.53366
 Alpha  occ. eigenvalues --   -0.48987  -0.47328  -0.43794  -0.43583  -0.35466
 Alpha virt. eigenvalues --    0.23159   0.24021   0.25792   0.27782   0.30268
 Alpha virt. eigenvalues --    0.30983   0.32587   0.34484   0.35447   0.36328
 Alpha virt. eigenvalues --    0.37628   0.39307   0.45087   0.45980   0.70890
 Alpha virt. eigenvalues --    0.72359   0.78902   0.79414   0.83575   0.84355
 Alpha virt. eigenvalues --    0.90181   0.92931   0.93120   0.96699   0.99373
 Alpha virt. eigenvalues --    1.08304   1.10932   1.11940   1.12467   1.14597
 Alpha virt. eigenvalues --    1.15668   1.20746   1.21625   1.22048   1.22444
 Alpha virt. eigenvalues --    1.24119   1.29306   1.34341   1.44586   1.52599
 Alpha virt. eigenvalues --    1.58450   1.67352   1.73167   1.78820   1.92339
 Alpha virt. eigenvalues --    2.01751   2.03429   2.09923   2.13041   2.26108
 Alpha virt. eigenvalues --    2.30518   2.31731   2.33838   2.43149   2.48537
 Alpha virt. eigenvalues --    2.49054   2.54071   2.59028   2.61159   2.67955
 Alpha virt. eigenvalues --    2.71553   2.77627   2.82044   2.85258   2.95757
 Alpha virt. eigenvalues --    2.99160   3.02598   3.16620   4.23738   4.66685
 Alpha virt. eigenvalues --    4.68982   4.89715   4.98240
          Condensed to atoms (all electrons):
               1          2          3          4          5          6
     1  N    7.278819   0.292510   0.268877  -0.024870  -0.031347  -0.138739
     2  H    0.292510   0.438503  -0.026328  -0.002988   0.001621   0.005577
     3  C    0.268877  -0.026328   5.025808   0.395850   0.397446   0.322793
     4  H   -0.024870  -0.002988   0.395850   0.546369  -0.031577  -0.034041
     5  H   -0.031347   0.001621   0.397446  -0.031577   0.502901  -0.030252
     6  C   -0.138739   0.005577   0.322793  -0.034041  -0.030252   5.252147
     7  H    0.008183  -0.000337  -0.035351  -0.000238  -0.000947   0.388107
     8  H   -0.015393   0.000709  -0.030852   0.003125  -0.001629   0.420573
     9  C   -0.114041   0.002934  -0.102341  -0.020695   0.008825   0.328970
    10  H   -0.011220   0.001965  -0.011670  -0.004394   0.000846  -0.036534
    11  H    0.009811  -0.000244   0.006363  -0.000196  -0.000116  -0.039317
    12  C    0.267930  -0.032322  -0.050613   0.003972   0.001245  -0.097580
    13  H   -0.028086  -0.001706   0.001344  -0.000010   0.000013   0.009705
    14  H   -0.023945   0.002354   0.003102  -0.000189  -0.000004  -0.017803
               7          8          9         10         11         12
     1  N    0.008183  -0.015393  -0.114041  -0.011220   0.009811   0.267930
     2  H   -0.000337   0.000709   0.002934   0.001965  -0.000244  -0.032322
     3  C   -0.035351  -0.030852  -0.102341  -0.011670   0.006363  -0.050613
     4  H   -0.000238   0.003125  -0.020695  -0.004394  -0.000196   0.003972
     5  H   -0.000947  -0.001629   0.008825   0.000846  -0.000116   0.001245
     6  C    0.388107   0.420573   0.328970  -0.036534  -0.039317  -0.097580
     7  H    0.543192  -0.028539  -0.033995   0.000801  -0.001362   0.005667
     8  H   -0.028539   0.488192  -0.035584   0.002132  -0.000020  -0.010094
     9  C   -0.033995  -0.035584   5.227927   0.418322   0.379399   0.329975
    10  H    0.000801   0.002132   0.418322   0.516818  -0.029759  -0.031295
    11  H   -0.001362  -0.000020   0.379399  -0.029759   0.564821  -0.037265
    12  C    0.005667  -0.010094   0.329975  -0.031295  -0.037265   5.021196
    13  H   -0.000150   0.000972  -0.034904  -0.001551  -0.001413   0.393033
    14  H    0.000273  -0.005039  -0.038098   0.002712   0.001150   0.405585
              13         14
     1  N   -0.028086  -0.023945
     2  H   -0.001706   0.002354
     3  C    0.001344   0.003102
     4  H   -0.000010  -0.000189
     5  H    0.000013  -0.000004
     6  C    0.009705  -0.017803
     7  H   -0.000150   0.000273
     8  H    0.000972  -0.005039
     9  C   -0.034904  -0.038098
    10  H   -0.001551   0.002712
    11  H   -0.001413   0.001150
    12  C    0.393033   0.405585
    13  H    0.525967  -0.029604
    14  H   -0.029604   0.510976
 Mulliken charges:
               1
     1  N   -0.738489
     2  H    0.317752
     3  C   -0.164425
     4  H    0.169883
     5  H    0.182975
     6  C   -0.333607
     7  H    0.154696
     8  H    0.211446
     9  C   -0.316696
    10  H    0.182825
    11  H    0.148149
    12  C   -0.169433
    13  H    0.166391
    14  H    0.188531
 Sum of Mulliken charges =  -0.00000
 Mulliken charges with hydrogens summed into heavy atoms:
               1
     1  N   -0.420737
     3  C    0.188434
     6  C    0.032535
     9  C    0.014279
    12  C    0.185490
 Electronic spatial extent (au):  <R**2>=            378.2846
 Charge=              0.0000 electrons
 Dipole moment (field-independent basis, Debye):
    X=             -0.2988    Y=              1.1710    Z=             -1.2768  Tot=              1.7581
 Quadrupole moment (field-independent basis, Debye-Ang):
   XX=            -30.9098   YY=            -35.9659   ZZ=            -31.3601
   XY=              0.5845   XZ=             -0.8277   YZ=              3.0043
 Traceless Quadrupole moment (field-independent basis, Debye-Ang):
   XX=              1.8354   YY=             -3.2206   ZZ=              1.3852
   XY=              0.5845   XZ=             -0.8277   YZ=              3.0043
 Octapole moment (field-independent basis, Debye-Ang**2):
  XXX=             -0.0321  YYY=              1.2772  ZZZ=             -0.8674  XYY=             -1.0728
  XXY=             -2.6419  XXZ=              0.3121  XZZ=             -0.3005  YZZ=             -0.1122
  YYZ=             -5.3924  XYZ=             -0.9136
 Hexadecapole moment (field-independent basis, Debye-Ang**3):
 XXXX=           -230.8334 YYYY=           -187.0266 ZZZZ=            -86.1354 XXXY=              0.1521
 XXXZ=             -0.5991 YYYX=              2.6436 YYYZ=             10.9462 ZZZX=             -3.3506
 ZZZY=              3.5934 XXYY=            -68.6402 XXZZ=            -53.0039 YYZZ=            -47.1245
 XXYZ=              0.5264 YYXZ=              0.7209 ZZXY=              0.3470
 N-N= 1.904435810983D+02 E-N=-8.727682637909D+02  KE= 2.106939696045D+02
 1\1\GINC-C405-034\Scan\RMP2-FC\6-31G(d)\C4H9N1\TG455515\02-Apr-2021\0\
 \# opt=modredundant MP2/6-31g(d) Geom=PrintInputOrient\\PRLD Dihedral/
 Improper Scan\\0,1\N,0.6766892529,0.4311214157,0.4912619522\H,0.517580
 6804,0.4494011219,1.5055541742\C,2.1335865069,1.1813654406,0.146342507
 9\H,2.8574629007,1.2520532706,0.9557533556\H,1.8385622892,2.1669488178
 ,-0.2205345101\C,2.3569418355,0.0919878577,-0.8403181774\H,3.311702392
 6,0.1595347422,-1.3853829833\H,1.5494901781,0.0157563977,-1.5582469511
 \C,2.3667829967,-0.998530129,0.2639575353\H,2.6856716407,-0.6612646727
 ,1.2433798984\H,2.9772129801,-1.8767873991,-0.0122621863\C,0.901834023
 1,-1.2053663503,0.1574424769\H,0.3852697149,-1.7500219969,0.9545293936
 \H,0.5082122075,-1.469198486,-0.8184765219\\Version=ES64L-G16RevA.03\S
 tate=1-A\HF=-211.1432106,-211.1430814,-211.1426199,-211.1421178,-211.1
 293896,-211.0923046,-211.0279356\MP2=-211.8273514,-211.8273433,-211.82
 69091,-211.825624,-211.8154625,-211.7838566,-211.72961\RMSD=3.619e-09,
 2.429e-09,2.866e-09,3.670e-09,2.836e-09,5.870e-09,6.338e-09\PG=C01 [X(
 C4H9N1)]\\@


 AS FAR AS THE LAWS OF MATHEMATICS REFER TO REALITY,
 THEY ARE NOT CERTAIN; AND AS FAR AS THEY ARE CERTAIN,
 THEY DO NOT REFER TO REALITY.

                                         -- ALBERT EINSTEIN
 Job cpu time:       0 days  0 hours 21 minutes 29.0 seconds.
 Elapsed time:       0 days  0 hours 21 minutes 11.0 seconds.
 File lengths (MBytes):  RWF=     10 Int=      0 D2E=      0 Chk=      3 Scr=      1
 Normal termination of Gaussian 16 at Fri Apr  2 19:18:30 2021.
