 Entering Gaussian System, Link 0=g16
 Initial command:
 /home1/apps/gaussian/16rA.03/g16/l1.exe "/tmp/Gau-20387.inp" -scrdir="/tmp/"
 Entering Link 1 = /home1/apps/gaussian/16rA.03/g16/l1.exe PID=     20388.
  
 Copyright (c) 1988,1990,1992,1993,1995,1998,2003,2009,2016,
            Gaussian, Inc.  All Rights Reserved.
  
 This is part of the Gaussian(R) 16 program.  It is based on
 the Gaussian(R) 09 system (copyright 2009, Gaussian, Inc.),
 the Gaussian(R) 03 system (copyright 2003, Gaussian, Inc.),
 the Gaussian(R) 98 system (copyright 1998, Gaussian, Inc.),
 the Gaussian(R) 94 system (copyright 1995, Gaussian, Inc.),
 the Gaussian 92(TM) system (copyright 1992, Gaussian, Inc.),
 the Gaussian 90(TM) system (copyright 1990, Gaussian, Inc.),
 the Gaussian 88(TM) system (copyright 1988, Gaussian, Inc.),
 the Gaussian 86(TM) system (copyright 1986, Carnegie Mellon
 University), and the Gaussian 82(TM) system (copyright 1983,
 Carnegie Mellon University). Gaussian is a federally registered
 trademark of Gaussian, Inc.
  
 This software contains proprietary and confidential information,
 including trade secrets, belonging to Gaussian, Inc.
  
 This software is provided under written license and may be
 used, copied, transmitted, or stored only in accord with that
 written license.
  
 The following legend is applicable only to US Government
 contracts under FAR:
  
                    RESTRICTED RIGHTS LEGEND
  
 Use, reproduction and disclosure by the US Government is
 subject to restrictions as set forth in subparagraphs (a)
 and (c) of the Commercial Computer Software - Restricted
 Rights clause in FAR 52.227-19.
  
 Gaussian, Inc.
 340 Quinnipiac St., Bldg. 40, Wallingford CT 06492
  
  
 ---------------------------------------------------------------
 Warning -- This program may not be used in any manner that
 competes with the business of Gaussian, Inc. or will provide
 assistance to any competitor of Gaussian, Inc.  The licensee
 of this program is prohibited from giving any competitor of
 Gaussian, Inc. access to this program.  By using this program,
 the user acknowledges that Gaussian, Inc. is engaged in the
 business of creating and licensing software in the field of
 computational chemistry and represents and warrants to the
 licensee that it is not a competitor of Gaussian, Inc. and that
 it will not use this program in any manner prohibited above.
 ---------------------------------------------------------------
  

 Cite this work as:
 Gaussian 16, Revision A.03,
 M. J. Frisch, G. W. Trucks, H. B. Schlegel, G. E. Scuseria, 
 M. A. Robb, J. R. Cheeseman, G. Scalmani, V. Barone, 
 G. A. Petersson, H. Nakatsuji, X. Li, M. Caricato, A. V. Marenich, 
 J. Bloino, B. G. Janesko, R. Gomperts, B. Mennucci, H. P. Hratchian, 
 J. V. Ortiz, A. F. Izmaylov, J. L. Sonnenberg, D. Williams-Young, 
 F. Ding, F. Lipparini, F. Egidi, J. Goings, B. Peng, A. Petrone, 
 T. Henderson, D. Ranasinghe, V. G. Zakrzewski, J. Gao, N. Rega, 
 G. Zheng, W. Liang, M. Hada, M. Ehara, K. Toyota, R. Fukuda, 
 J. Hasegawa, M. Ishida, T. Nakajima, Y. Honda, O. Kitao, H. Nakai, 
 T. Vreven, K. Throssell, J. A. Montgomery, Jr., J. E. Peralta, 
 F. Ogliaro, M. J. Bearpark, J. J. Heyd, E. N. Brothers, K. N. Kudin, 
 V. N. Staroverov, T. A. Keith, R. Kobayashi, J. Normand, 
 K. Raghavachari, A. P. Rendell, J. C. Burant, S. S. Iyengar, 
 J. Tomasi, M. Cossi, J. M. Millam, M. Klene, C. Adamo, R. Cammi, 
 J. W. Ochterski, R. L. Martin, K. Morokuma, O. Farkas, 
 J. B. Foresman, and D. J. Fox, Gaussian, Inc., Wallingford CT, 2016.
 
 ******************************************
 Gaussian 16:  ES64L-G16RevA.03 25-Dec-2016
                 2-Apr-2021 
 ******************************************
 %chk=PRLD.scan2.pos.chk
 %nproc=1
 Will use up to    1 processors via shared memory.
 %mem=1GB
 -----------------------------------------------------
 # opt=modredundant MP2/6-31g(d) Geom=PrintInputOrient
 -----------------------------------------------------
 1/18=120,19=15,38=1/1,3;
 2/9=2110,12=2,17=6,18=5,40=1/2;
 3/5=1,6=6,7=1,11=9,25=1,30=1,71=1/1,2,3;
 4//1;
 5/5=2,38=5/2;
 8/6=4,10=2/1;
 9/15=2,16=-3/6;
 10/5=1/2;
 6/7=2,8=2,9=2,10=2/1;
 7/12=2/1,2,3,16;
 1/18=20,19=15/3(2);
 2/9=2110/2;
 99//99;
 2/9=2110/2;
 3/5=1,6=6,7=1,11=9,25=1,30=1,71=1/1,2,3;
 4/5=5,16=3,69=1/1;
 5/5=2,38=5/2;
 8/6=4,10=2/1;
 9/15=2,16=-3/6;
 10/5=1/2;
 7/12=2/1,2,3,16;
 1/18=20,19=15/3(-8);
 2/9=2110/2;
 6/7=2,8=2,9=2,10=2/1;
 99//99;
 ---------------------------
 PRLD Dihedral/Improper Scan
 ---------------------------
 Symbolic Z-matrix:
 Charge =  0 Multiplicity = 1
 N1                    0.844     0.456     0.923 
 H2                    1.372     0.495     1.798 
 C3                    1.643     1.125    -0.113 
 H4                    2.        2.097     0.243 
 H5                    0.987     1.307    -0.971 
 C6                    2.779     0.153    -0.504 
 H7                    3.689     0.384     0.059 
 H8                    3.031     0.222    -1.566 
 C9                    2.231    -1.24     -0.112 
 H10                   2.866    -1.707     0.647 
 H11                   2.185    -1.928    -0.962 
 C12                   0.83     -0.941     0.469 
 H13                   0.542    -1.609     1.286 
 H14                   0.068    -1.027    -0.314 
 
 The following ModRedundant input section has been read:
 D      12       1       3       6 S   6 15.000                                
 

 GradGradGradGradGradGradGradGradGradGradGradGradGradGradGradGradGradGrad
 Berny optimization.
 Initialization pass.
                           ----------------------------
                           !    Initial Parameters    !
                           ! (Angstroms and Degrees)  !
 --------------------------                            --------------------------
 ! Name  Definition              Value          Derivative Info.                !
 --------------------------------------------------------------------------------
 ! R1    R(1,2)                  1.0227         estimate D2E/DX2                !
 ! R2    R(1,3)                  1.4694         estimate D2E/DX2                !
 ! R3    R(1,12)                 1.469          estimate D2E/DX2                !
 ! R4    R(3,4)                  1.095          estimate D2E/DX2                !
 ! R5    R(3,5)                  1.0953         estimate D2E/DX2                !
 ! R6    R(3,6)                  1.5454         estimate D2E/DX2                !
 ! R7    R(6,7)                  1.0947         estimate D2E/DX2                !
 ! R8    R(6,8)                  1.0937         estimate D2E/DX2                !
 ! R9    R(6,9)                  1.5474         estimate D2E/DX2                !
 ! R10   R(9,10)                 1.0943         estimate D2E/DX2                !
 ! R11   R(9,11)                 1.0945         estimate D2E/DX2                !
 ! R12   R(9,12)                 1.5459         estimate D2E/DX2                !
 ! R13   R(12,13)                1.0939         estimate D2E/DX2                !
 ! R14   R(12,14)                1.096          estimate D2E/DX2                !
 ! A1    A(2,1,3)              107.7654         estimate D2E/DX2                !
 ! A2    A(2,1,12)             107.7946         estimate D2E/DX2                !
 ! A3    A(3,1,12)             102.7239         estimate D2E/DX2                !
 ! A4    A(1,3,4)              110.6221         estimate D2E/DX2                !
 ! A5    A(1,3,5)              107.5946         estimate D2E/DX2                !
 ! A6    A(1,3,6)              106.9617         estimate D2E/DX2                !
 ! A7    A(4,3,5)              107.6053         estimate D2E/DX2                !
 ! A8    A(4,3,6)              113.6363         estimate D2E/DX2                !
 ! A9    A(5,3,6)              110.279          estimate D2E/DX2                !
 ! A10   A(3,6,7)              110.3782         estimate D2E/DX2                !
 ! A11   A(3,6,8)              112.0481         estimate D2E/DX2                !
 ! A12   A(3,6,9)              103.9924         estimate D2E/DX2                !
 ! A13   A(7,6,8)              107.1301         estimate D2E/DX2                !
 ! A14   A(7,6,9)              110.7358         estimate D2E/DX2                !
 ! A15   A(8,6,9)              112.6059         estimate D2E/DX2                !
 ! A16   A(6,9,10)             110.7565         estimate D2E/DX2                !
 ! A17   A(6,9,11)             112.5829         estimate D2E/DX2                !
 ! A18   A(6,9,12)             104.0073         estimate D2E/DX2                !
 ! A19   A(10,9,11)            107.145          estimate D2E/DX2                !
 ! A20   A(10,9,12)            110.3511         estimate D2E/DX2                !
 ! A21   A(11,9,12)            112.0469         estimate D2E/DX2                !
 ! A22   A(1,12,9)             106.9451         estimate D2E/DX2                !
 ! A23   A(1,12,13)            110.635          estimate D2E/DX2                !
 ! A24   A(1,12,14)            107.581          estimate D2E/DX2                !
 ! A25   A(9,12,13)            113.6523         estimate D2E/DX2                !
 ! A26   A(9,12,14)            110.2689         estimate D2E/DX2                !
 ! A27   A(13,12,14)           107.615          estimate D2E/DX2                !
 ! D1    D(2,1,3,4)            -48.7385         estimate D2E/DX2                !
 ! D2    D(2,1,3,5)           -166.0198         estimate D2E/DX2                !
 ! D3    D(2,1,3,6)             75.4998         estimate D2E/DX2                !
 ! D4    D(12,1,3,4)          -162.4            estimate D2E/DX2                !
 ! D5    D(12,1,3,5)            80.3186         estimate D2E/DX2                !
 ! D6    D(12,1,3,6)           -38.1617         Scan                            !
 ! D7    D(2,1,12,9)           -75.5014         estimate D2E/DX2                !
 ! D8    D(2,1,12,13)           48.7538         estimate D2E/DX2                !
 ! D9    D(2,1,12,14)          166.0459         estimate D2E/DX2                !
 ! D10   D(3,1,12,9)            38.1387         estimate D2E/DX2                !
 ! D11   D(3,1,12,13)          162.3939         estimate D2E/DX2                !
 ! D12   D(3,1,12,14)          -80.314          estimate D2E/DX2                !
 ! D13   D(1,3,6,7)            -95.3684         estimate D2E/DX2                !
 ! D14   D(1,3,6,8)            145.3276         estimate D2E/DX2                !
 ! D15   D(1,3,6,9)             23.4354         estimate D2E/DX2                !
 ! D16   D(4,3,6,7)             27.004          estimate D2E/DX2                !
 ! D17   D(4,3,6,8)            -92.2999         estimate D2E/DX2                !
 ! D18   D(4,3,6,9)            145.8078         estimate D2E/DX2                !
 ! D19   D(5,3,6,7)            147.9132         estimate D2E/DX2                !
 ! D20   D(5,3,6,8)             28.6092         estimate D2E/DX2                !
 ! D21   D(5,3,6,9)            -93.2831         estimate D2E/DX2                !
 ! D22   D(3,6,9,10)          -118.5629         estimate D2E/DX2                !
 ! D23   D(3,6,9,11)           121.4993         estimate D2E/DX2                !
 ! D24   D(3,6,9,12)            -0.0176         estimate D2E/DX2                !
 ! D25   D(7,6,9,10)            -0.0044         estimate D2E/DX2                !
 ! D26   D(7,6,9,11)          -119.9421         estimate D2E/DX2                !
 ! D27   D(7,6,9,12)           118.541          estimate D2E/DX2                !
 ! D28   D(8,6,9,10)           119.9156         estimate D2E/DX2                !
 ! D29   D(8,6,9,11)            -0.0222         estimate D2E/DX2                !
 ! D30   D(8,6,9,12)          -121.5391         estimate D2E/DX2                !
 ! D31   D(6,9,12,1)           -23.4104         estimate D2E/DX2                !
 ! D32   D(6,9,12,13)         -145.7976         estimate D2E/DX2                !
 ! D33   D(6,9,12,14)           93.2771         estimate D2E/DX2                !
 ! D34   D(10,9,12,1)           95.4127         estimate D2E/DX2                !
 ! D35   D(10,9,12,13)         -26.9744         estimate D2E/DX2                !
 ! D36   D(10,9,12,14)        -147.8998         estimate D2E/DX2                !
 ! D37   D(11,9,12,1)         -145.2836         estimate D2E/DX2                !
 ! D38   D(11,9,12,13)          92.3293         estimate D2E/DX2                !
 ! D39   D(11,9,12,14)         -28.5961         estimate D2E/DX2                !
 --------------------------------------------------------------------------------
 Trust Radius=3.00D-01 FncErr=1.00D-07 GrdErr=1.00D-07 EigMax=2.50D+02 EigMin=1.00D-04
 Number of optimizations in scan=   7
 Number of steps in this run=     90 maximum allowed number of steps=    100.
 GradGradGradGradGradGradGradGradGradGradGradGradGradGradGradGradGradGrad

                          Input orientation:                          
 ---------------------------------------------------------------------
 Center     Atomic      Atomic             Coordinates (Angstroms)
 Number     Number       Type             X           Y           Z
 ---------------------------------------------------------------------
      1          7           0        0.844000    0.456000    0.923000
      2          1           0        1.372000    0.495000    1.798000
      3          6           0        1.643000    1.125000   -0.113000
      4          1           0        2.000000    2.097000    0.243000
      5          1           0        0.987000    1.307000   -0.971000
      6          6           0        2.779000    0.153000   -0.504000
      7          1           0        3.689000    0.384000    0.059000
      8          1           0        3.031000    0.222000   -1.566000
      9          6           0        2.231000   -1.240000   -0.112000
     10          1           0        2.866000   -1.707000    0.647000
     11          1           0        2.185000   -1.928000   -0.962000
     12          6           0        0.830000   -0.941000    0.469000
     13          1           0        0.542000   -1.609000    1.286000
     14          1           0        0.068000   -1.027000   -0.314000
 ---------------------------------------------------------------------
                    Distance matrix (angstroms):
                    1          2          3          4          5
     1  N    0.000000
     2  H    1.022707   0.000000
     3  C    1.469441   2.030335   0.000000
     4  H    2.119343   2.319227   1.094974   0.000000
     5  H    2.081318   2.911173   1.095274   1.767502   0.000000
     6  C    2.423296   2.719525   1.545368   2.223508   2.181987
     7  H    2.974173   2.899126   2.182838   2.412664   3.035397
     8  H    3.321573   3.760759   2.202989   2.801975   2.389390
     9  C    2.423099   2.719597   2.437000   3.363771   2.961862
    10  H    2.973757   2.899248   3.177035   3.922192   3.902917
    11  H    3.321891   3.761582   3.214868   4.205577   3.449712
    12  C    1.468986   2.030296   2.295223   3.263345   2.674276
    13  H    2.118301   2.319021   3.262539   4.116801   3.714180
    14  H    2.081258   2.911605   2.674347   3.715138   2.593023
                    6          7          8          9         10
     6  C    0.000000
     7  H    1.094728   0.000000
     8  H    1.093668   1.760634   0.000000
     9  C    1.547390   2.189151   2.211687   0.000000
    10  H    2.189057   2.322790   2.940346   1.094255   0.000000
    11  H    2.212049   2.941054   2.388102   1.094514   1.761103
    12  C    2.437656   3.177673   3.215306   1.545886   2.182598
    13  H    3.363467   3.921886   4.204948   2.223350   2.412240
    14  H    2.962773   3.904061   3.450634   2.182829   3.035577
                   11         12         13         14
    11  H    0.000000
    12  C    2.204077   0.000000
    13  H    2.802626   1.093918   0.000000
    14  H    2.390271   1.095960   1.767314   0.000000
 Stoichiometry    C4H9N
 Framework group  C1[X(C4H9N)]
 Deg. of freedom    36
 Full point group                 C1      NOp   1
 Largest Abelian subgroup         C1      NOp   1
 Largest concise Abelian subgroup C1      NOp   1
                         Standard orientation:                         
 ---------------------------------------------------------------------
 Center     Atomic      Atomic             Coordinates (Angstroms)
 Number     Number       Type             X           Y           Z
 ---------------------------------------------------------------------
      1          7           0       -0.009754   -1.267896   -0.216048
      2          1           0       -0.009609   -1.307741   -1.237979
      3          6           0        1.144047   -0.459296    0.201285
      4          1           0        2.052841   -0.790293   -0.312042
      5          1           0        1.291688   -0.622098    1.274281
      6          6           0        0.781546    1.017994   -0.071425
      7          1           0        1.171547    1.332796   -1.044681
      8          1           0        1.207027    1.690375    0.678894
      9          6           0       -0.765800    1.029688   -0.071443
     10          1           0       -1.151178    1.350244   -1.044131
     11          1           0       -1.181004    1.708768    0.679833
     12          6           0       -1.151114   -0.442432    0.200878
     13          1           0       -2.063843   -0.759288   -0.312137
     14          1           0       -1.301266   -0.603214    1.274532
 ---------------------------------------------------------------------
 Rotational constants (GHZ):           6.8866106           6.6914801           3.9136725
 Standard basis: 6-31G(d) (6D, 7F)
 There are    93 symmetry adapted cartesian basis functions of A   symmetry.
 There are    93 symmetry adapted basis functions of A   symmetry.
    93 basis functions,   176 primitive gaussians,    93 cartesian basis functions
    20 alpha electrons       20 beta electrons
       nuclear repulsion energy       190.0136865772 Hartrees.
 NAtoms=   14 NActive=   14 NUniq=   14 SFac= 1.00D+00 NAtFMM=   60 NAOKFM=F Big=F
 Integral buffers will be    131072 words long.
 Raffenetti 1 integral format.
 Two-electron integral symmetry is turned on.
 One-electron integrals computed using PRISM.
 NBasis=    93 RedAO= T EigKep=  3.15D-03  NBF=    93
 NBsUse=    93 1.00D-06 EigRej= -1.00D+00 NBFU=    93
 ExpMin= 1.61D-01 ExpMax= 4.17D+03 ExpMxC= 6.27D+02 IAcc=3 IRadAn=         5 AccDes= 0.00D+00
 Harris functional with IExCor=  205 and IRadAn=       5 diagonalized for initial guess.
 HarFok:  IExCor=  205 AccDes= 0.00D+00 IRadAn=         5 IDoV= 1 UseB2=F ITyADJ=14
 ICtDFT=  3500011 ScaDFX=  1.000000  1.000000  1.000000  1.000000
 FoFCou: FMM=F IPFlag=           0 FMFlag=      100000 FMFlg1=           0
         NFxFlg=           0 DoJE=T BraDBF=F KetDBF=T FulRan=T
         wScrn=  0.000000 ICntrl=       500 IOpCl=  0 I1Cent=   200000004 NGrid=           0
         NMat0=    1 NMatS0=      1 NMatT0=    0 NMatD0=    1 NMtDS0=    0 NMtDT0=    0
 Petite list used in FoFCou.
 Keep R1 ints in memory in canonical form, NReq=10436288.
 Requested convergence on RMS density matrix=1.00D-08 within 128 cycles.
 Requested convergence on MAX density matrix=1.00D-06.
 Requested convergence on             energy=1.00D-06.
 No special actions if energy rises.
 SCF Done:  E(RHF) =  -211.143200098     A.U. after   12 cycles
            NFock= 12  Conv=0.39D-08     -V/T= 2.0015
 ExpMin= 1.61D-01 ExpMax= 4.17D+03 ExpMxC= 6.27D+02 IAcc=3 IRadAn=         5 AccDes= 0.00D+00
 HarFok:  IExCor=  205 AccDes= 0.00D+00 IRadAn=         5 IDoV=-2 UseB2=F ITyADJ=14
 ICtDFT= 12500011 ScaDFX=  1.000000  1.000000  1.000000  1.000000
 Range of M.O.s used for correlation:     6    93
 NBasis=    93 NAE=    20 NBE=    20 NFC=     5 NFV=     0
 NROrb=     88 NOA=    15 NOB=    15 NVA=    73 NVB=    73
 Fully direct method using O(ONN) memory.
 JobTyp=1 Pass  1:  I=   6 to  20 NPSUse=  1 ParTrn=F ParDer=F DoDerP=T.
 Spin components of T(2) and E(2):
     alpha-alpha T2 =       0.2790801328D-01 E2=     -0.8405127363D-01
     alpha-beta  T2 =       0.1679168201D+00 E2=     -0.5160463410D+00
     beta-beta   T2 =       0.2790801328D-01 E2=     -0.8405127363D-01
 ANorm=    0.1106224591D+01
 E2 =    -0.6841488883D+00 EUMP2 =    -0.21182734898599D+03
          IDoAtm=11111111111111
          Differentiating once with respect to electric field.
                with respect to dipole field.
          Differentiating once with respect to nuclear coordinates.
 Keep R1 ints in memory in canonical form, NReq=10438744.
          There are     1 degrees of freedom in the 1st order CPHF.  IDoFFX=0 NUNeed=     1.
 LinEq1:  Iter=  0 NonCon=     1 RMS=4.26D-03 Max=4.54D-02 NDo=     1
 AX will form     1 AO Fock derivatives at one time.
 LinEq1:  Iter=  1 NonCon=     1 RMS=1.43D-03 Max=1.40D-02 NDo=     1
 LinEq1:  Iter=  2 NonCon=     1 RMS=2.90D-04 Max=3.43D-03 NDo=     1
 LinEq1:  Iter=  3 NonCon=     1 RMS=5.58D-05 Max=4.08D-04 NDo=     1
 LinEq1:  Iter=  4 NonCon=     1 RMS=1.18D-05 Max=1.55D-04 NDo=     1
 LinEq1:  Iter=  5 NonCon=     1 RMS=4.47D-06 Max=3.98D-05 NDo=     1
 LinEq1:  Iter=  6 NonCon=     1 RMS=1.05D-06 Max=1.56D-05 NDo=     1
 LinEq1:  Iter=  7 NonCon=     1 RMS=1.91D-07 Max=1.83D-06 NDo=     1
 LinEq1:  Iter=  8 NonCon=     1 RMS=6.29D-08 Max=5.75D-07 NDo=     1
 LinEq1:  Iter=  9 NonCon=     1 RMS=1.37D-08 Max=1.24D-07 NDo=     1
 LinEq1:  Iter= 10 NonCon=     1 RMS=3.65D-09 Max=2.96D-08 NDo=     1
 LinEq1:  Iter= 11 NonCon=     1 RMS=6.11D-10 Max=7.96D-09 NDo=     1
 LinEq1:  Iter= 12 NonCon=     1 RMS=1.20D-10 Max=1.50D-09 NDo=     1
 LinEq1:  Iter= 13 NonCon=     0 RMS=1.91D-11 Max=1.76D-10 NDo=     1
 Linear equations converged to 1.000D-10 1.000D-09 after    13 iterations.
 End of Minotr F.D. properties file   721 does not exist.
 End of Minotr F.D. properties file   722 does not exist.
 End of Minotr F.D. properties file   788 does not exist.

 **********************************************************************

            Population analysis using the SCF density.

 **********************************************************************

 Orbital symmetries:
       Occupied  (A) (A) (A) (A) (A) (A) (A) (A) (A) (A) (A) (A)
                 (A) (A) (A) (A) (A) (A) (A) (A)
       Virtual   (A) (A) (A) (A) (A) (A) (A) (A) (A) (A) (A) (A)
                 (A) (A) (A) (A) (A) (A) (A) (A) (A) (A) (A) (A)
                 (A) (A) (A) (A) (A) (A) (A) (A) (A) (A) (A) (A)
                 (A) (A) (A) (A) (A) (A) (A) (A) (A) (A) (A) (A)
                 (A) (A) (A) (A) (A) (A) (A) (A) (A) (A) (A) (A)
                 (A) (A) (A) (A) (A) (A) (A) (A) (A) (A) (A) (A)
                 (A)
 The electronic state is 1-A.
 Alpha  occ. eigenvalues --  -15.54076 -11.24200 -11.24195 -11.21855 -11.21799
 Alpha  occ. eigenvalues --   -1.21663  -1.01921  -0.96899  -0.81410  -0.78334
 Alpha  occ. eigenvalues --   -0.67516  -0.63699  -0.58968  -0.58396  -0.50622
 Alpha  occ. eigenvalues --   -0.49289  -0.47912  -0.47626  -0.45740  -0.37275
 Alpha virt. eigenvalues --    0.21279   0.24725   0.28660   0.29029   0.30117
 Alpha virt. eigenvalues --    0.32558   0.33858   0.33958   0.36392   0.37738
 Alpha virt. eigenvalues --    0.40785   0.41401   0.48517   0.52442   0.72779
 Alpha virt. eigenvalues --    0.76267   0.76616   0.79767   0.80365   0.83842
 Alpha virt. eigenvalues --    0.90478   0.92044   0.92595   0.94963   1.01860
 Alpha virt. eigenvalues --    1.02452   1.09480   1.10988   1.12808   1.13150
 Alpha virt. eigenvalues --    1.15438   1.17173   1.19496   1.20850   1.21106
 Alpha virt. eigenvalues --    1.23722   1.24020   1.24151   1.49539   1.52543
 Alpha virt. eigenvalues --    1.59180   1.59545   1.69288   1.90975   2.00838
 Alpha virt. eigenvalues --    2.08684   2.12260   2.13555   2.19833   2.22442
 Alpha virt. eigenvalues --    2.29045   2.31775   2.35028   2.42288   2.43267
 Alpha virt. eigenvalues --    2.43361   2.51046   2.57266   2.59218   2.71449
 Alpha virt. eigenvalues --    2.73627   2.81719   2.90009   2.95574   2.97825
 Alpha virt. eigenvalues --    2.98905   3.02819   3.24107   4.34967   4.60737
 Alpha virt. eigenvalues --    4.68019   4.86124   5.04389
          Condensed to atoms (all electrons):
               1          2          3          4          5          6
     1  N    7.058662   0.327541   0.294203  -0.033404  -0.047556  -0.084999
     2  H    0.327541   0.433304  -0.042392  -0.005379   0.005680  -0.000687
     3  C    0.294203  -0.042392   4.977886   0.403748   0.406065   0.333688
     4  H   -0.033404  -0.005379   0.403748   0.521240  -0.026325  -0.035555
     5  H   -0.047556   0.005680   0.406065  -0.026325   0.544869  -0.053864
     6  C   -0.084999  -0.000687   0.333688  -0.035555  -0.053864   5.205597
     7  H    0.002637   0.000959  -0.038300  -0.004204   0.003824   0.396024
     8  H    0.004386  -0.000026  -0.032387   0.001335  -0.002463   0.391464
     9  C   -0.085089  -0.000691  -0.061393   0.003840  -0.000390   0.321496
    10  H    0.002649   0.000958   0.003257  -0.000161  -0.000013  -0.038489
    11  H    0.004384  -0.000026   0.002984  -0.000064   0.000166  -0.033459
    12  C    0.294002  -0.042370  -0.094809   0.006117  -0.001884  -0.061284
    13  H   -0.033416  -0.005385   0.006123  -0.000114  -0.000171   0.003829
    14  H   -0.047622   0.005682  -0.001900  -0.000171   0.003456  -0.000382
               7          8          9         10         11         12
     1  N    0.002637   0.004386  -0.085089   0.002649   0.004384   0.294002
     2  H    0.000959  -0.000026  -0.000691   0.000958  -0.000026  -0.042370
     3  C   -0.038300  -0.032387  -0.061393   0.003257   0.002984  -0.094809
     4  H   -0.004204   0.001335   0.003840  -0.000161  -0.000064   0.006117
     5  H    0.003824  -0.002463  -0.000390  -0.000013   0.000166  -0.001884
     6  C    0.396024   0.391464   0.321496  -0.038489  -0.033459  -0.061284
     7  H    0.542616  -0.025836  -0.038527  -0.006280   0.002599   0.003251
     8  H   -0.025836   0.527014  -0.033400   0.002596  -0.003631   0.002974
     9  C   -0.038527  -0.033400   5.205831   0.395992   0.391377   0.333836
    10  H   -0.006280   0.002596   0.395992   0.542443  -0.025801  -0.038327
    11  H    0.002599  -0.003631   0.391377  -0.025801   0.527314  -0.032361
    12  C    0.003251   0.002974   0.333836  -0.038327  -0.032361   4.977646
    13  H   -0.000161  -0.000063  -0.035505  -0.004188   0.001332   0.403827
    14  H   -0.000013   0.000165  -0.053852   0.003822  -0.002460   0.406044
              13         14
     1  N   -0.033416  -0.047622
     2  H   -0.005385   0.005682
     3  C    0.006123  -0.001900
     4  H   -0.000114  -0.000171
     5  H   -0.000171   0.003456
     6  C    0.003829  -0.000382
     7  H   -0.000161  -0.000013
     8  H   -0.000063   0.000165
     9  C   -0.035505  -0.053852
    10  H   -0.004188   0.003822
    11  H    0.001332  -0.002460
    12  C    0.403827   0.406044
    13  H    0.520894  -0.026326
    14  H   -0.026326   0.545162
 Mulliken charges:
               1
     1  N   -0.656379
     2  H    0.322831
     3  C   -0.156772
     4  H    0.169095
     5  H    0.168606
     6  C   -0.343380
     7  H    0.161410
     8  H    0.167872
     9  C   -0.343527
    10  H    0.161542
    11  H    0.167645
    12  C   -0.156662
    13  H    0.169324
    14  H    0.168395
 Sum of Mulliken charges =  -0.00000
 Mulliken charges with hydrogens summed into heavy atoms:
               1
     1  N   -0.333548
     3  C    0.180929
     6  C   -0.014098
     9  C   -0.014340
    12  C    0.181057
 Electronic spatial extent (au):  <R**2>=            390.2955
 Charge=             -0.0000 electrons
 Dipole moment (field-independent basis, Debye):
    X=              0.0108    Y=              1.4000    Z=             -0.6708  Tot=              1.5525
 Quadrupole moment (field-independent basis, Debye-Ang):
   XX=            -31.4430   YY=            -37.4386   ZZ=            -30.3356
   XY=             -0.0423   XZ=              0.0141   YZ=              1.4414
 Traceless Quadrupole moment (field-independent basis, Debye-Ang):
   XX=              1.6294   YY=             -4.3662   ZZ=              2.7368
   XY=             -0.0423   XZ=              0.0141   YZ=              1.4414
 Octapole moment (field-independent basis, Debye-Ang**2):
  XXX=             -0.0557  YYY=              7.4680  ZZZ=             -2.5630  XYY=              0.0925
  XXY=             -2.2856  XXZ=             -1.0006  XZZ=             -0.0165  YZZ=             -2.3218
  YYZ=             -1.4684  XYZ=             -0.0024
 Hexadecapole moment (field-independent basis, Debye-Ang**3):
 XXXX=           -226.6934 YYYY=           -248.7377 ZZZZ=            -65.8087 XXXY=              0.0072
 XXXZ=              0.0625 YYYX=             -0.1840 YYYZ=              5.7507 ZZZX=              0.0341
 ZZZY=              3.2304 XXYY=            -75.0449 XXZZ=            -48.5104 YYZZ=            -45.1589
 XXYZ=              2.0821 YYXZ=              0.0159 ZZXY=              0.0194
 N-N= 1.900136865772D+02 E-N=-8.720763185249D+02  KE= 2.108304137868D+02
 Calling FoFJK, ICntrl=  10002127 FMM=F ISym2X=0 I1Cent= 0 IOpClX= 0 NMat=1 NMatS=1 NMatT=0.
 ***** Axes restored to original set *****
 -------------------------------------------------------------------
 Center     Atomic                   Forces (Hartrees/Bohr)
 Number     Number              X              Y              Z
 -------------------------------------------------------------------
      1        7           0.000067218    0.000324295    0.000355385
      2        1          -0.000147219   -0.000035560   -0.000241089
      3        6           0.000758105    0.000773310    0.000735129
      4        1          -0.000288273   -0.000698691   -0.000271797
      5        1          -0.000308412    0.000033250   -0.000433494
      6        6          -0.000098258    0.000152779    0.000315185
      7        1          -0.000099833   -0.000004959   -0.000060197
      8        1           0.000110722   -0.000045813   -0.000301852
      9        6          -0.000507108   -0.000177978   -0.000275408
     10        1           0.000133008   -0.000094664    0.000103544
     11        1           0.000074374    0.000132703    0.000198827
     12        6           0.000296758   -0.000382461    0.000076681
     13        1           0.000028013    0.000050298   -0.000099903
     14        1          -0.000019094   -0.000026509   -0.000101012
 -------------------------------------------------------------------
 Cartesian Forces:  Max     0.000773310 RMS     0.000306300

 GradGradGradGradGradGradGradGradGradGradGradGradGradGradGradGradGradGrad
 Berny optimization.
 FormGI is forming the generalized inverse of G from B-inverse, IUseBI=4.
 Internal  Forces:  Max     0.000802576 RMS     0.000137397
 Search for a local minimum.
 Step number   1 out of a maximum of   90 on scan point     1 out of     7
 All quantities printed in internal units (Hartrees-Bohrs-Radians)
 Mixed Optimization -- En-DIIS/RFO-DIIS
 Second derivative matrix not updated -- first step.
 ITU=  0
     Eigenvalues ---    0.00323   0.01552   0.02308   0.02519   0.04337
     Eigenvalues ---    0.04381   0.04969   0.05400   0.05525   0.05681
     Eigenvalues ---    0.05842   0.06889   0.06892   0.08231   0.08733
     Eigenvalues ---    0.08798   0.09329   0.11006   0.11214   0.19069
     Eigenvalues ---    0.21179   0.26193   0.26957   0.28012   0.33892
     Eigenvalues ---    0.34133   0.34210   0.34244   0.34272   0.34296
     Eigenvalues ---    0.34312   0.34325   0.34364   0.34392   0.43909
     Eigenvalues --- 1000.000001000.000001000.000001000.000001000.00000
     Eigenvalues --- 1000.000001000.000001000.000001000.000001000.00000
     Eigenvalues --- 1000.000001000.000001000.000001000.000001000.00000
     Eigenvalues --- 1000.000001000.000001000.000001000.000001000.00000
     Eigenvalues --- 1000.000001000.000001000.000001000.000001000.00000
     Eigenvalues --- 1000.000001000.000001000.000001000.000001000.00000
     Eigenvalues --- 1000.000001000.000001000.000001000.000001000.00000
     Eigenvalues --- 1000.000001000.000001000.000001000.000001000.00000
     Eigenvalues --- 1000.000001000.000001000.000001000.000001000.00000
 RFO step:  Lambda=-4.78294080D-06 EMin= 3.23340686D-03
 Linear search not attempted -- first point.
 Iteration  1 RMS(Cart)=  0.00045935 RMS(Int)=  0.00000036
 Iteration  2 RMS(Cart)=  0.00000028 RMS(Int)=  0.00000006
 Iteration  1 RMS(Cart)=  0.00000000 RMS(Int)=  0.00000000
 Variable       Old X    -DE/DX   Delta X   Delta X   Delta X     New X
                                 (Linear)    (Quad)   (Total)
    R1        1.93264  -0.00028   0.00000  -0.00065  -0.00065   1.93199
    R2        2.77684   0.00007   0.00000   0.00021   0.00021   2.77705
    R3        2.77598   0.00035   0.00000   0.00101   0.00101   2.77700
    R4        2.06920  -0.00080   0.00000  -0.00234  -0.00234   2.06686
    R5        2.06977   0.00053   0.00000   0.00155   0.00155   2.07132
    R6        2.92032  -0.00004   0.00000  -0.00016  -0.00016   2.92016
    R7        2.06874  -0.00011   0.00000  -0.00034  -0.00034   2.06840
    R8        2.06673   0.00032   0.00000   0.00092   0.00092   2.06765
    R9        2.92414   0.00015   0.00000   0.00049   0.00049   2.92463
   R10        2.06784   0.00019   0.00000   0.00055   0.00055   2.06839
   R11        2.06833  -0.00024   0.00000  -0.00070  -0.00070   2.06763
   R12        2.92130  -0.00026   0.00000  -0.00093  -0.00093   2.92037
   R13        2.06721  -0.00011   0.00000  -0.00033  -0.00033   2.06688
   R14        2.07106   0.00009   0.00000   0.00026   0.00026   2.07132
    A1        1.88086   0.00002   0.00000   0.00013   0.00013   1.88099
    A2        1.88137  -0.00002   0.00000  -0.00015  -0.00015   1.88122
    A3        1.79287  -0.00003   0.00000  -0.00006  -0.00006   1.79281
    A4        1.93072   0.00001   0.00000   0.00031   0.00031   1.93103
    A5        1.87788   0.00001   0.00000  -0.00021  -0.00021   1.87767
    A6        1.86683  -0.00005   0.00000  -0.00032  -0.00032   1.86652
    A7        1.87807   0.00000   0.00000   0.00017   0.00017   1.87824
    A8        1.98333   0.00006   0.00000   0.00054   0.00054   1.98387
    A9        1.92473  -0.00005   0.00000  -0.00054  -0.00054   1.92420
   A10        1.92646  -0.00005   0.00000  -0.00026  -0.00026   1.92621
   A11        1.95561   0.00003   0.00000   0.00059   0.00059   1.95620
   A12        1.81501   0.00008   0.00000   0.00029   0.00029   1.81530
   A13        1.86977   0.00001   0.00000  -0.00017  -0.00017   1.86961
   A14        1.93270   0.00000   0.00000   0.00006   0.00006   1.93276
   A15        1.96534  -0.00007   0.00000  -0.00051  -0.00051   1.96483
   A16        1.93307  -0.00001   0.00000  -0.00022  -0.00022   1.93285
   A17        1.96494  -0.00000   0.00000   0.00001   0.00001   1.96495
   A18        1.81527  -0.00001   0.00000  -0.00007  -0.00007   1.81520
   A19        1.87003  -0.00003   0.00000  -0.00042  -0.00042   1.86962
   A20        1.92599   0.00001   0.00000   0.00013   0.00013   1.92612
   A21        1.95559   0.00004   0.00000   0.00059   0.00059   1.95618
   A22        1.86654   0.00003   0.00000   0.00018   0.00018   1.86673
   A23        1.93094   0.00001   0.00000   0.00033   0.00033   1.93127
   A24        1.87764   0.00001   0.00000   0.00011   0.00011   1.87775
   A25        1.98361  -0.00001   0.00000   0.00004   0.00004   1.98365
   A26        1.92455  -0.00006   0.00000  -0.00068  -0.00068   1.92388
   A27        1.87824   0.00001   0.00000   0.00001   0.00001   1.87825
    D1       -0.85065  -0.00002   0.00000  -0.00080  -0.00080  -0.85144
    D2       -2.89759  -0.00004   0.00000  -0.00105  -0.00105  -2.89864
    D3        1.31772   0.00004   0.00000  -0.00015  -0.00015   1.31757
    D4       -2.83442   0.00002   0.00000  -0.00065  -0.00065  -2.83506
    D5        1.40182  -0.00001   0.00000  -0.00090  -0.00090   1.40092
    D6       -0.66605   0.00007   0.00000   0.00000  -0.00000  -0.66605
    D7       -1.31775  -0.00002   0.00000  -0.00020  -0.00020  -1.31794
    D8        0.85091  -0.00000   0.00000   0.00018   0.00018   0.85109
    D9        2.89805   0.00003   0.00000   0.00044   0.00044   2.89849
   D10        0.66565  -0.00001   0.00000  -0.00014  -0.00014   0.66551
   D11        2.83431   0.00000   0.00000   0.00024   0.00024   2.83455
   D12       -1.40174   0.00003   0.00000   0.00050   0.00050  -1.40124
   D13       -1.66449  -0.00003   0.00000   0.00038   0.00038  -1.66412
   D14        2.53645  -0.00002   0.00000   0.00038   0.00038   2.53682
   D15        0.40902  -0.00001   0.00000   0.00049   0.00049   0.40951
   D16        0.47131  -0.00000   0.00000   0.00088   0.00088   0.47219
   D17       -1.61094   0.00000   0.00000   0.00088   0.00088  -1.61006
   D18        2.54483   0.00002   0.00000   0.00099   0.00099   2.54582
   D19        2.58157   0.00001   0.00000   0.00108   0.00108   2.58266
   D20        0.49932   0.00001   0.00000   0.00108   0.00108   0.50041
   D21       -1.62810   0.00003   0.00000   0.00119   0.00119  -1.62690
   D22       -2.06931   0.00001   0.00000  -0.00054  -0.00054  -2.06985
   D23        2.12056   0.00005   0.00000   0.00014   0.00014   2.12070
   D24       -0.00031   0.00001   0.00000  -0.00054  -0.00054  -0.00085
   D25       -0.00008  -0.00001   0.00000  -0.00064  -0.00064  -0.00072
   D26       -2.09339   0.00003   0.00000   0.00003   0.00003  -2.09335
   D27        2.06893  -0.00000   0.00000  -0.00064  -0.00064   2.06829
   D28        2.09292  -0.00005   0.00000  -0.00117  -0.00117   2.09176
   D29       -0.00039  -0.00000   0.00000  -0.00049  -0.00049  -0.00087
   D30       -2.12126  -0.00004   0.00000  -0.00116  -0.00116  -2.12242
   D31       -0.40859   0.00002   0.00000   0.00050   0.00050  -0.40808
   D32       -2.54465  -0.00001   0.00000  -0.00007  -0.00007  -2.54471
   D33        1.62799   0.00002   0.00000   0.00038   0.00038   1.62837
   D34        1.66527   0.00001   0.00000   0.00027   0.00027   1.66554
   D35       -0.47079  -0.00002   0.00000  -0.00030  -0.00030  -0.47109
   D36       -2.58134   0.00001   0.00000   0.00015   0.00015  -2.58119
   D37       -2.53568   0.00001   0.00000   0.00022   0.00022  -2.53546
   D38        1.61145  -0.00002   0.00000  -0.00035  -0.00035   1.61110
   D39       -0.49910   0.00001   0.00000   0.00010   0.00010  -0.49900
         Item               Value     Threshold  Converged?
 Maximum Force            0.000803     0.000450     NO 
 RMS     Force            0.000137     0.000300     YES
 Maximum Displacement     0.001309     0.001800     YES
 RMS     Displacement     0.000459     0.001200     YES
 Predicted change in Energy=-2.391413D-06
 GradGradGradGradGradGradGradGradGradGradGradGradGradGradGradGradGradGrad

                          Input orientation:                          
 ---------------------------------------------------------------------
 Center     Atomic      Atomic             Coordinates (Angstroms)
 Number     Number       Type             X           Y           Z
 ---------------------------------------------------------------------
      1          7           0        0.844336    0.456441    0.923503
      2          1           0        1.372312    0.495184    1.798130
      3          6           0        1.643204    1.125499   -0.112720
      4          1           0        1.999518    2.096710    0.242307
      5          1           0        0.986604    1.306760   -0.971464
      6          6           0        2.778850    0.153195   -0.503652
      7          1           0        3.688568    0.383966    0.059553
      8          1           0        3.031599    0.221816   -1.565999
      9          6           0        2.230519   -1.240101   -0.112146
     10          1           0        2.865935   -1.707591    0.646625
     11          1           0        2.184742   -1.927632   -0.962058
     12          6           0        0.830227   -0.941029    0.469219
     13          1           0        0.542227   -1.609250    1.285806
     14          1           0        0.068359   -1.026967   -0.314106
 ---------------------------------------------------------------------
                    Distance matrix (angstroms):
                    1          2          3          4          5
     1  N    0.000000
     2  H    1.022365   0.000000
     3  C    1.469553   2.030278   0.000000
     4  H    2.118715   2.319236   1.093734   0.000000
     5  H    2.081870   2.911714   1.096093   1.767273   0.000000
     6  C    2.423030   2.719101   1.545281   2.222850   2.182133
     7  H    2.973435   2.898286   2.182443   2.412422   3.035646
     8  H    3.322166   3.761028   2.203702   2.801855   2.390100
     9  C    2.423288   2.719722   2.437417   3.363525   2.961799
    10  H    2.974316   2.899844   3.177747   3.922608   3.903384
    11  H    3.322022   3.761479   3.215003   4.204775   3.449190
    12  C    1.469523   2.030411   2.295675   3.262911   2.674431
    13  H    2.118871   2.319517   3.262955   4.116640   3.714277
    14  H    2.081902   2.911834   2.674659   3.714340   2.592600
                    6          7          8          9         10
     6  C    0.000000
     7  H    1.094551   0.000000
     8  H    1.094153   1.760773   0.000000
     9  C    1.547649   2.189288   2.211926   0.000000
    10  H    2.189349   2.322928   2.940368   1.094547   0.000000
    11  H    2.212000   2.940862   2.387894   1.094142   1.760768
    12  C    2.437404   3.177035   3.215643   1.545395   2.182475
    13  H    3.363162   3.921233   4.205065   2.222807   2.412020
    14  H    2.962342   3.903366   3.450722   2.182006   3.035240
                   11         12         13         14
    11  H    0.000000
    12  C    2.203781   0.000000
    13  H    2.802163   1.093745   0.000000
    14  H    2.389585   1.096096   1.767293   0.000000
 Stoichiometry    C4H9N
 Framework group  C1[X(C4H9N)]
 Deg. of freedom    36
 Full point group                 C1      NOp   1
 Largest Abelian subgroup         C1      NOp   1
 Largest concise Abelian subgroup C1      NOp   1
                         Standard orientation:                         
 ---------------------------------------------------------------------
 Center     Atomic      Atomic             Coordinates (Angstroms)
 Number     Number       Type             X           Y           Z
 ---------------------------------------------------------------------
      1          7           0        0.002308   -1.268054   -0.216153
      2          1           0        0.002710   -1.307909   -1.237741
      3          6           0        1.148610   -0.448689    0.201246
      4          1           0        2.059743   -0.771098   -0.310754
      5          1           0        1.297028   -0.609589    1.275258
      6          6           0        0.772020    1.024928   -0.071747
      7          1           0        1.158760    1.342845   -1.045093
      8          1           0        1.191233    1.702338    0.678285
      9          6           0       -0.775627    1.022391   -0.071216
     10          1           0       -1.164166    1.339726   -1.044031
     11          1           0       -1.196656    1.697727    0.679652
     12          6           0       -1.147061   -0.452832    0.200813
     13          1           0       -2.056891   -0.777986   -0.311790
     14          1           0       -1.295567   -0.614467    1.274707
 ---------------------------------------------------------------------
 Rotational constants (GHZ):           6.8850511           6.6922060           3.9134910
 Standard basis: 6-31G(d) (6D, 7F)
 There are    93 symmetry adapted cartesian basis functions of A   symmetry.
 There are    93 symmetry adapted basis functions of A   symmetry.
    93 basis functions,   176 primitive gaussians,    93 cartesian basis functions
    20 alpha electrons       20 beta electrons
       nuclear repulsion energy       190.0095098442 Hartrees.
 NAtoms=   14 NActive=   14 NUniq=   14 SFac= 1.00D+00 NAtFMM=   60 NAOKFM=F Big=F
 Integral buffers will be    131072 words long.
 Raffenetti 1 integral format.
 Two-electron integral symmetry is turned on.
 One-electron integrals computed using PRISM.
 NBasis=    93 RedAO= T EigKep=  3.15D-03  NBF=    93
 NBsUse=    93 1.00D-06 EigRej= -1.00D+00 NBFU=    93
 Initial guess from the checkpoint file:  "PRLD.scan2.pos.chk"
 B after Tr=    -0.000000    0.000000   -0.000000
         Rot=    0.999989    0.000071   -0.000010   -0.004654 Ang=   0.53 deg.
 Keep R1 ints in memory in canonical form, NReq=10436318.
 Requested convergence on RMS density matrix=1.00D-08 within 128 cycles.
 Requested convergence on MAX density matrix=1.00D-06.
 Requested convergence on             energy=1.00D-06.
 No special actions if energy rises.
 SCF Done:  E(RHF) =  -211.143209170     A.U. after    7 cycles
            NFock=  7  Conv=0.52D-08     -V/T= 2.0015
 ExpMin= 1.61D-01 ExpMax= 4.17D+03 ExpMxC= 6.27D+02 IAcc=3 IRadAn=         5 AccDes= 0.00D+00
 HarFok:  IExCor=  205 AccDes= 0.00D+00 IRadAn=         5 IDoV=-2 UseB2=F ITyADJ=14
 ICtDFT= 12500011 ScaDFX=  1.000000  1.000000  1.000000  1.000000
 Range of M.O.s used for correlation:     6    93
 NBasis=    93 NAE=    20 NBE=    20 NFC=     5 NFV=     0
 NROrb=     88 NOA=    15 NOB=    15 NVA=    73 NVB=    73
 Fully direct method using O(ONN) memory.
 JobTyp=1 Pass  1:  I=   6 to  20 NPSUse=  1 ParTrn=F ParDer=F DoDerP=T.
 Spin components of T(2) and E(2):
     alpha-alpha T2 =       0.2790778623D-01 E2=     -0.8404974068D-01
     alpha-beta  T2 =       0.1679155356D+00 E2=     -0.5160427552D+00
     beta-beta   T2 =       0.2790778623D-01 E2=     -0.8404974068D-01
 ANorm=    0.1106223806D+01
 E2 =    -0.6841422365D+00 EUMP2 =    -0.21182735140671D+03
          IDoAtm=11111111111111
          Differentiating once with respect to electric field.
                with respect to dipole field.
          Differentiating once with respect to nuclear coordinates.
 Keep R1 ints in memory in canonical form, NReq=10438744.
          There are     1 degrees of freedom in the 1st order CPHF.  IDoFFX=0 NUNeed=     1.
 LinEq1:  Iter=  0 NonCon=     1 RMS=4.26D-03 Max=4.53D-02 NDo=     1
 AX will form     1 AO Fock derivatives at one time.
 LinEq1:  Iter=  1 NonCon=     1 RMS=1.43D-03 Max=1.40D-02 NDo=     1
 LinEq1:  Iter=  2 NonCon=     1 RMS=2.90D-04 Max=3.42D-03 NDo=     1
 LinEq1:  Iter=  3 NonCon=     1 RMS=5.59D-05 Max=4.10D-04 NDo=     1
 LinEq1:  Iter=  4 NonCon=     1 RMS=1.19D-05 Max=1.55D-04 NDo=     1
 LinEq1:  Iter=  5 NonCon=     1 RMS=4.50D-06 Max=4.00D-05 NDo=     1
 LinEq1:  Iter=  6 NonCon=     1 RMS=1.05D-06 Max=1.55D-05 NDo=     1
 LinEq1:  Iter=  7 NonCon=     1 RMS=1.92D-07 Max=1.83D-06 NDo=     1
 LinEq1:  Iter=  8 NonCon=     1 RMS=6.32D-08 Max=5.78D-07 NDo=     1
 LinEq1:  Iter=  9 NonCon=     1 RMS=1.37D-08 Max=1.25D-07 NDo=     1
 LinEq1:  Iter= 10 NonCon=     1 RMS=3.65D-09 Max=2.95D-08 NDo=     1
 LinEq1:  Iter= 11 NonCon=     1 RMS=6.11D-10 Max=7.95D-09 NDo=     1
 LinEq1:  Iter= 12 NonCon=     1 RMS=1.20D-10 Max=1.50D-09 NDo=     1
 LinEq1:  Iter= 13 NonCon=     0 RMS=1.90D-11 Max=1.76D-10 NDo=     1
 Linear equations converged to 1.000D-10 1.000D-09 after    13 iterations.
 End of Minotr F.D. properties file   721 does not exist.
 End of Minotr F.D. properties file   722 does not exist.
 End of Minotr F.D. properties file   788 does not exist.
 Calling FoFJK, ICntrl=  10002127 FMM=F ISym2X=0 I1Cent= 0 IOpClX= 0 NMat=1 NMatS=1 NMatT=0.
 ***** Axes restored to original set *****
 -------------------------------------------------------------------
 Center     Atomic                   Forces (Hartrees/Bohr)
 Number     Number              X              Y              Z
 -------------------------------------------------------------------
      1        7          -0.000105584    0.000046147   -0.000004354
      2        1           0.000010349   -0.000020238    0.000004423
      3        6           0.000086860   -0.000033231    0.000009318
      4        1          -0.000000108    0.000000642    0.000007725
      5        1          -0.000013258   -0.000017910    0.000002502
      6        6          -0.000035832    0.000048919   -0.000052624
      7        1           0.000011870   -0.000006838    0.000007071
      8        1           0.000014927   -0.000009267    0.000004322
      9        6          -0.000090479    0.000011184    0.000050638
     10        1           0.000033101    0.000001310   -0.000008303
     11        1           0.000012774    0.000007393   -0.000006418
     12        6           0.000104308   -0.000093835   -0.000039212
     13        1          -0.000011226    0.000030395    0.000012725
     14        1          -0.000017702    0.000035329    0.000012189
 -------------------------------------------------------------------
 Cartesian Forces:  Max     0.000105584 RMS     0.000039818

 GradGradGradGradGradGradGradGradGradGradGradGradGradGradGradGradGradGrad
 Berny optimization.
 Using GEDIIS/GDIIS optimizer.
 FormGI is forming the generalized inverse of G from B-inverse, IUseBI=4.
 Internal  Forces:  Max     0.000036106 RMS     0.000014017
 Search for a local minimum.
 Step number   2 out of a maximum of   90 on scan point     1 out of     7
 All quantities printed in internal units (Hartrees-Bohrs-Radians)
 Mixed Optimization -- En-DIIS/RFO-DIIS
 Swapping is turned off.
 Update second derivatives using D2CorX and points    1    2
 DE= -2.42D-06 DEPred=-2.39D-06 R= 1.01D+00
 TightC=F SS=  1.41D+00  RLast= 5.56D-03 DXNew= 5.0454D-01 1.6669D-02
 Trust test= 1.01D+00 RLast= 5.56D-03 DXMaxT set to 3.00D-01
 ITU=  1  0
     Eigenvalues ---    0.00322   0.01528   0.02308   0.02516   0.04337
     Eigenvalues ---    0.04391   0.04965   0.05350   0.05516   0.05687
     Eigenvalues ---    0.05863   0.06790   0.06894   0.08239   0.08769
     Eigenvalues ---    0.08927   0.09363   0.11006   0.11201   0.19167
     Eigenvalues ---    0.21168   0.26181   0.26957   0.27426   0.33883
     Eigenvalues ---    0.33999   0.34134   0.34223   0.34280   0.34294
     Eigenvalues ---    0.34320   0.34361   0.34377   0.35220   0.44064
     Eigenvalues --- 1000.000001000.000001000.000001000.000001000.00000
     Eigenvalues --- 1000.000001000.000001000.000001000.000001000.00000
     Eigenvalues --- 1000.000001000.000001000.000001000.000001000.00000
     Eigenvalues --- 1000.000001000.000001000.000001000.000001000.00000
     Eigenvalues --- 1000.000001000.000001000.000001000.000001000.00000
     Eigenvalues --- 1000.000001000.000001000.000001000.000001000.00000
     Eigenvalues --- 1000.000001000.000001000.000001000.000001000.00000
     Eigenvalues --- 1000.000001000.000001000.000001000.000001000.00000
     Eigenvalues --- 1000.000001000.000001000.000001000.000001000.00000
 En-DIIS/RFO-DIIS/Sim-DIIS IScMMF=       -3 using points:     2    1
 RFO step:  Lambda=-1.37585558D-07.
 DidBck=F Rises=F RFO-DIIS coefs:    1.16977   -0.16977
 Iteration  1 RMS(Cart)=  0.00018239 RMS(Int)=  0.00000003
 Iteration  2 RMS(Cart)=  0.00000003 RMS(Int)=  0.00000002
 Iteration  1 RMS(Cart)=  0.00000000 RMS(Int)=  0.00000000
 Variable       Old X    -DE/DX   Delta X   Delta X   Delta X     New X
                                 (Linear)    (Quad)   (Total)
    R1        1.93199   0.00001  -0.00011   0.00011   0.00000   1.93199
    R2        2.77705   0.00002   0.00004   0.00003   0.00007   2.77712
    R3        2.77700   0.00001   0.00017  -0.00011   0.00006   2.77705
    R4        2.06686   0.00000  -0.00040   0.00034  -0.00006   2.06680
    R5        2.07132   0.00000   0.00026  -0.00021   0.00005   2.07137
    R6        2.92016  -0.00003  -0.00003  -0.00013  -0.00015   2.92001
    R7        2.06840   0.00001  -0.00006   0.00008   0.00003   2.06843
    R8        2.06765  -0.00000   0.00016  -0.00013   0.00002   2.06767
    R9        2.92463   0.00001   0.00008  -0.00005   0.00004   2.92467
   R10        2.06839   0.00001   0.00009  -0.00004   0.00005   2.06845
   R11        2.06763  -0.00000  -0.00012   0.00010  -0.00002   2.06761
   R12        2.92037  -0.00004  -0.00016   0.00002  -0.00014   2.92024
   R13        2.06688  -0.00001  -0.00006   0.00003  -0.00003   2.06685
   R14        2.07132   0.00000   0.00004  -0.00003   0.00001   2.07133
    A1        1.88099   0.00000   0.00002  -0.00003  -0.00001   1.88098
    A2        1.88122  -0.00001  -0.00003  -0.00019  -0.00022   1.88100
    A3        1.79281  -0.00003  -0.00001  -0.00011  -0.00012   1.79269
    A4        1.93103  -0.00001   0.00005  -0.00009  -0.00003   1.93099
    A5        1.87767  -0.00002  -0.00003  -0.00018  -0.00021   1.87746
    A6        1.86652   0.00003  -0.00005   0.00020   0.00015   1.86667
    A7        1.87824   0.00001   0.00003   0.00007   0.00010   1.87833
    A8        1.98387  -0.00000   0.00009  -0.00005   0.00004   1.98391
    A9        1.92420  -0.00001  -0.00009   0.00003  -0.00006   1.92414
   A10        1.92621   0.00001  -0.00004   0.00008   0.00004   1.92625
   A11        1.95620   0.00002   0.00010   0.00012   0.00022   1.95642
   A12        1.81530  -0.00002   0.00005  -0.00017  -0.00012   1.81518
   A13        1.86961  -0.00001  -0.00003  -0.00001  -0.00004   1.86956
   A14        1.93276  -0.00000   0.00001  -0.00011  -0.00010   1.93267
   A15        1.96483   0.00000  -0.00009   0.00008  -0.00000   1.96483
   A16        1.93285  -0.00001  -0.00004  -0.00017  -0.00020   1.93265
   A17        1.96495  -0.00001   0.00000  -0.00017  -0.00017   1.96478
   A18        1.81520   0.00001  -0.00001   0.00010   0.00009   1.81529
   A19        1.86962  -0.00000  -0.00007   0.00000  -0.00007   1.86955
   A20        1.92612   0.00002   0.00002   0.00025   0.00027   1.92638
   A21        1.95618   0.00000   0.00010  -0.00001   0.00009   1.95627
   A22        1.86673   0.00002   0.00003   0.00001   0.00005   1.86677
   A23        1.93127  -0.00003   0.00006  -0.00031  -0.00026   1.93102
   A24        1.87775  -0.00003   0.00002  -0.00038  -0.00036   1.87739
   A25        1.98365   0.00002   0.00001   0.00022   0.00023   1.98388
   A26        1.92388   0.00001  -0.00011   0.00034   0.00023   1.92411
   A27        1.87825   0.00000   0.00000   0.00007   0.00008   1.87832
    D1       -0.85144  -0.00002  -0.00014  -0.00030  -0.00043  -0.85188
    D2       -2.89864  -0.00001  -0.00018  -0.00023  -0.00041  -2.89905
    D3        1.31757  -0.00000  -0.00002  -0.00028  -0.00031   1.31727
    D4       -2.83506   0.00001  -0.00011  -0.00002  -0.00013  -2.83519
    D5        1.40092   0.00001  -0.00015   0.00005  -0.00010   1.40082
    D6       -0.66605   0.00002  -0.00000   0.00000   0.00000  -0.66605
    D7       -1.31794  -0.00001  -0.00003   0.00005   0.00002  -1.31793
    D8        0.85109   0.00002   0.00003   0.00015   0.00018   0.85127
    D9        2.89849  -0.00001   0.00007  -0.00016  -0.00008   2.89840
   D10        0.66551  -0.00002  -0.00002  -0.00011  -0.00013   0.66537
   D11        2.83455   0.00000   0.00004  -0.00002   0.00002   2.83457
   D12       -1.40124  -0.00003   0.00009  -0.00032  -0.00024  -1.40148
   D13       -1.66412  -0.00000   0.00006   0.00020   0.00026  -1.66385
   D14        2.53682  -0.00001   0.00006   0.00008   0.00014   2.53696
   D15        0.40951  -0.00001   0.00008   0.00002   0.00010   0.40961
   D16        0.47219   0.00001   0.00015   0.00020   0.00035   0.47254
   D17       -1.61006  -0.00000   0.00015   0.00008   0.00023  -1.60983
   D18        2.54582  -0.00000   0.00017   0.00002   0.00019   2.54601
   D19        2.58266   0.00001   0.00018   0.00028   0.00046   2.58312
   D20        0.50041   0.00000   0.00018   0.00016   0.00034   0.50075
   D21       -1.62690   0.00000   0.00020   0.00010   0.00030  -1.62660
   D22       -2.06985  -0.00001  -0.00009  -0.00029  -0.00038  -2.07024
   D23        2.12070   0.00001   0.00002  -0.00006  -0.00004   2.12066
   D24       -0.00085   0.00001  -0.00009  -0.00003  -0.00012  -0.00096
   D25       -0.00072  -0.00001  -0.00011  -0.00034  -0.00045  -0.00117
   D26       -2.09335   0.00001   0.00001  -0.00011  -0.00011  -2.09346
   D27        2.06829   0.00001  -0.00011  -0.00007  -0.00018   2.06810
   D28        2.09176  -0.00002  -0.00020  -0.00037  -0.00057   2.09119
   D29       -0.00087   0.00000  -0.00008  -0.00014  -0.00023  -0.00110
   D30       -2.12242  -0.00000  -0.00020  -0.00011  -0.00030  -2.12272
   D31       -0.40808  -0.00000   0.00009   0.00003   0.00011  -0.40797
   D32       -2.54471   0.00001  -0.00001   0.00027   0.00025  -2.54446
   D33        1.62837  -0.00002   0.00006  -0.00023  -0.00017   1.62820
   D34        1.66554  -0.00001   0.00005   0.00001   0.00006   1.66559
   D35       -0.47109   0.00000  -0.00005   0.00025   0.00020  -0.47089
   D36       -2.58119  -0.00002   0.00003  -0.00025  -0.00023  -2.58141
   D37       -2.53546   0.00001   0.00004   0.00017   0.00021  -2.53525
   D38        1.61110   0.00002  -0.00006   0.00041   0.00035   1.61145
   D39       -0.49900  -0.00001   0.00002  -0.00009  -0.00007  -0.49907
         Item               Value     Threshold  Converged?
 Maximum Force            0.000038     0.000450     YES
 RMS     Force            0.000013     0.000300     YES
 Maximum Displacement     0.000697     0.001800     YES
 RMS     Displacement     0.000182     0.001200     YES
 Predicted change in Energy=-6.879107D-08
 Optimization completed.
    -- Stationary point found.
                           ----------------------------
                           !   Optimized Parameters   !
                           ! (Angstroms and Degrees)  !
 --------------------------                            --------------------------
 ! Name  Definition              Value          Derivative Info.                !
 --------------------------------------------------------------------------------
 ! R1    R(1,2)                  1.0224         -DE/DX =    0.0                 !
 ! R2    R(1,3)                  1.4696         -DE/DX =    0.0                 !
 ! R3    R(1,12)                 1.4695         -DE/DX =    0.0                 !
 ! R4    R(3,4)                  1.0937         -DE/DX =    0.0                 !
 ! R5    R(3,5)                  1.0961         -DE/DX =    0.0                 !
 ! R6    R(3,6)                  1.5453         -DE/DX =    0.0                 !
 ! R7    R(6,7)                  1.0946         -DE/DX =    0.0                 !
 ! R8    R(6,8)                  1.0942         -DE/DX =    0.0                 !
 ! R9    R(6,9)                  1.5476         -DE/DX =    0.0                 !
 ! R10   R(9,10)                 1.0945         -DE/DX =    0.0                 !
 ! R11   R(9,11)                 1.0941         -DE/DX =    0.0                 !
 ! R12   R(9,12)                 1.5454         -DE/DX =    0.0                 !
 ! R13   R(12,13)                1.0937         -DE/DX =    0.0                 !
 ! R14   R(12,14)                1.0961         -DE/DX =    0.0                 !
 ! A1    A(2,1,3)              107.7728         -DE/DX =    0.0                 !
 ! A2    A(2,1,12)             107.7859         -DE/DX =    0.0                 !
 ! A3    A(3,1,12)             102.7205         -DE/DX =    0.0                 !
 ! A4    A(1,3,4)              110.6396         -DE/DX =    0.0                 !
 ! A5    A(1,3,5)              107.5828         -DE/DX =    0.0                 !
 ! A6    A(1,3,6)              106.9435         -DE/DX =    0.0                 !
 ! A7    A(4,3,5)              107.615          -DE/DX =    0.0                 !
 ! A8    A(4,3,6)              113.6672         -DE/DX =    0.0                 !
 ! A9    A(5,3,6)              110.2483         -DE/DX =    0.0                 !
 ! A10   A(3,6,7)              110.3635         -DE/DX =    0.0                 !
 ! A11   A(3,6,8)              112.082          -DE/DX =    0.0                 !
 ! A12   A(3,6,9)              104.0093         -DE/DX =    0.0                 !
 ! A13   A(7,6,8)              107.1205         -DE/DX =    0.0                 !
 ! A14   A(7,6,9)              110.7391         -DE/DX =    0.0                 !
 ! A15   A(8,6,9)              112.5766         -DE/DX =    0.0                 !
 ! A16   A(6,9,10)             110.7441         -DE/DX =    0.0                 !
 ! A17   A(6,9,11)             112.5833         -DE/DX =    0.0                 !
 ! A18   A(6,9,12)             104.0031         -DE/DX =    0.0                 !
 ! A19   A(10,9,11)            107.1212         -DE/DX =    0.0                 !
 ! A20   A(10,9,12)            110.3583         -DE/DX =    0.0                 !
 ! A21   A(11,9,12)            112.0809         -DE/DX =    0.0                 !
 ! A22   A(1,12,9)             106.9556         -DE/DX =    0.0                 !
 ! A23   A(1,12,13)            110.6537         -DE/DX =    0.0                 !
 ! A24   A(1,12,14)            107.5872         -DE/DX =    0.0                 !
 ! A25   A(9,12,13)            113.6546         -DE/DX =    0.0                 !
 ! A26   A(9,12,14)            110.2302         -DE/DX =    0.0                 !
 ! A27   A(13,12,14)           107.6157         -DE/DX =    0.0                 !
 ! D1    D(2,1,3,4)            -48.7841         -DE/DX =    0.0                 !
 ! D2    D(2,1,3,5)           -166.0799         -DE/DX =    0.0                 !
 ! D3    D(2,1,3,6)             75.4914         -DE/DX =    0.0                 !
 ! D4    D(12,1,3,4)          -162.4372         -DE/DX =    0.0                 !
 ! D5    D(12,1,3,5)            80.267          -DE/DX =    0.0                 !
 ! D6    D(12,1,3,6)           -38.1617         -DE/DX =    0.0                 !
 ! D7    D(2,1,12,9)           -75.5127         -DE/DX =    0.0                 !
 ! D8    D(2,1,12,13)           48.7641         -DE/DX =    0.0                 !
 ! D9    D(2,1,12,14)          166.0711         -DE/DX =    0.0                 !
 ! D10   D(3,1,12,9)            38.1309         -DE/DX =    0.0                 !
 ! D11   D(3,1,12,13)          162.4077         -DE/DX =    0.0                 !
 ! D12   D(3,1,12,14)          -80.2853         -DE/DX =    0.0                 !
 ! D13   D(1,3,6,7)            -95.3468         -DE/DX =    0.0                 !
 ! D14   D(1,3,6,8)            145.3491         -DE/DX =    0.0                 !
 ! D15   D(1,3,6,9)             23.4632         -DE/DX =    0.0                 !
 ! D16   D(4,3,6,7)             27.0546         -DE/DX =    0.0                 !
 ! D17   D(4,3,6,8)            -92.2495         -DE/DX =    0.0                 !
 ! D18   D(4,3,6,9)            145.8646         -DE/DX =    0.0                 !
 ! D19   D(5,3,6,7)            147.9753         -DE/DX =    0.0                 !
 ! D20   D(5,3,6,8)             28.6712         -DE/DX =    0.0                 !
 ! D21   D(5,3,6,9)            -93.2148         -DE/DX =    0.0                 !
 ! D22   D(3,6,9,10)          -118.5938         -DE/DX =    0.0                 !
 ! D23   D(3,6,9,11)           121.5072         -DE/DX =    0.0                 !
 ! D24   D(3,6,9,12)            -0.0485         -DE/DX =    0.0                 !
 ! D25   D(7,6,9,10)            -0.0413         -DE/DX =    0.0                 !
 ! D26   D(7,6,9,11)          -119.9403         -DE/DX =    0.0                 !
 ! D27   D(7,6,9,12)           118.5041         -DE/DX =    0.0                 !
 ! D28   D(8,6,9,10)           119.8489         -DE/DX =    0.0                 !
 ! D29   D(8,6,9,11)            -0.0501         -DE/DX =    0.0                 !
 ! D30   D(8,6,9,12)          -121.6058         -DE/DX =    0.0                 !
 ! D31   D(6,9,12,1)           -23.3815         -DE/DX =    0.0                 !
 ! D32   D(6,9,12,13)         -145.8014         -DE/DX =    0.0                 !
 ! D33   D(6,9,12,14)           93.299          -DE/DX =    0.0                 !
 ! D34   D(10,9,12,1)           95.4283         -DE/DX =    0.0                 !
 ! D35   D(10,9,12,13)         -26.9915         -DE/DX =    0.0                 !
 ! D36   D(10,9,12,14)        -147.8912         -DE/DX =    0.0                 !
 ! D37   D(11,9,12,1)         -145.271          -DE/DX =    0.0                 !
 ! D38   D(11,9,12,13)          92.3091         -DE/DX =    0.0                 !
 ! D39   D(11,9,12,14)         -28.5906         -DE/DX =    0.0                 !
 --------------------------------------------------------------------------------
 Iteration  1 RMS(Cart)=  0.01111147 RMS(Int)=  0.02629414
 Iteration  2 RMS(Cart)=  0.00206519 RMS(Int)=  0.02614087
 Iteration  3 RMS(Cart)=  0.00039670 RMS(Int)=  0.02612867
 Iteration  4 RMS(Cart)=  0.00007634 RMS(Int)=  0.02612697
 Iteration  5 RMS(Cart)=  0.00001471 RMS(Int)=  0.02612666
 Iteration  6 RMS(Cart)=  0.00000283 RMS(Int)=  0.02612661
 Iteration  7 RMS(Cart)=  0.00000055 RMS(Int)=  0.02612659
 Iteration  1 RMS(Cart)=  0.01082771 RMS(Int)=  0.02110662
 Iteration  2 RMS(Cart)=  0.00905803 RMS(Int)=  0.02259627
 Iteration  3 RMS(Cart)=  0.00714187 RMS(Int)=  0.02582119
 Iteration  4 RMS(Cart)=  0.00567057 RMS(Int)=  0.02929797
 Iteration  5 RMS(Cart)=  0.00452756 RMS(Int)=  0.03248606
 Iteration  6 RMS(Cart)=  0.00363109 RMS(Int)=  0.03524243
 Iteration  7 RMS(Cart)=  0.00292252 RMS(Int)=  0.03756483
 Iteration  8 RMS(Cart)=  0.00235896 RMS(Int)=  0.03949669
 Iteration  9 RMS(Cart)=  0.00190845 RMS(Int)=  0.04109264
 Iteration 10 RMS(Cart)=  0.00154684 RMS(Int)=  0.04240586
 Iteration 11 RMS(Cart)=  0.00125562 RMS(Int)=  0.04348385
 Iteration 12 RMS(Cart)=  0.00102046 RMS(Int)=  0.04436741
 Iteration 13 RMS(Cart)=  0.00083015 RMS(Int)=  0.04509092
 Iteration 14 RMS(Cart)=  0.00067587 RMS(Int)=  0.04568297
 Iteration 15 RMS(Cart)=  0.00055061 RMS(Int)=  0.04616725
 Iteration 16 RMS(Cart)=  0.00044881 RMS(Int)=  0.04656324
 Iteration 17 RMS(Cart)=  0.00036598 RMS(Int)=  0.04688697
 Iteration 18 RMS(Cart)=  0.00029854 RMS(Int)=  0.04715159
 Iteration 19 RMS(Cart)=  0.00024360 RMS(Int)=  0.04736786
 Iteration 20 RMS(Cart)=  0.00019882 RMS(Int)=  0.04754460
 Iteration 21 RMS(Cart)=  0.00016229 RMS(Int)=  0.04768903
 Iteration 22 RMS(Cart)=  0.00013250 RMS(Int)=  0.04780705
 Iteration 23 RMS(Cart)=  0.00010819 RMS(Int)=  0.04790349
 Iteration 24 RMS(Cart)=  0.00008835 RMS(Int)=  0.04798228
 Iteration 25 RMS(Cart)=  0.00007216 RMS(Int)=  0.04804666
 Iteration 26 RMS(Cart)=  0.00005893 RMS(Int)=  0.04809927
 Iteration 27 RMS(Cart)=  0.00004814 RMS(Int)=  0.04814224
 Iteration 28 RMS(Cart)=  0.00003932 RMS(Int)=  0.04817736
 Iteration 29 RMS(Cart)=  0.00003212 RMS(Int)=  0.04820605
 Iteration 30 RMS(Cart)=  0.00002624 RMS(Int)=  0.04822949
 Iteration 31 RMS(Cart)=  0.00002143 RMS(Int)=  0.04824864
 Iteration 32 RMS(Cart)=  0.00001751 RMS(Int)=  0.04826428
 Iteration 33 RMS(Cart)=  0.00001430 RMS(Int)=  0.04827706
 Iteration 34 RMS(Cart)=  0.00001168 RMS(Int)=  0.04828751
 Iteration 35 RMS(Cart)=  0.00000955 RMS(Int)=  0.04829604
 Iteration 36 RMS(Cart)=  0.00000780 RMS(Int)=  0.04830301
 Iteration 37 RMS(Cart)=  0.00000637 RMS(Int)=  0.04830871
 Iteration 38 RMS(Cart)=  0.00000520 RMS(Int)=  0.04831336
 Iteration 39 RMS(Cart)=  0.00000425 RMS(Int)=  0.04831716
 Iteration 40 RMS(Cart)=  0.00000347 RMS(Int)=  0.04832027
 Iteration 41 RMS(Cart)=  0.00000284 RMS(Int)=  0.04832280
 Iteration 42 RMS(Cart)=  0.00000232 RMS(Int)=  0.04832488
 Iteration 43 RMS(Cart)=  0.00000189 RMS(Int)=  0.04832657
 Iteration 44 RMS(Cart)=  0.00000155 RMS(Int)=  0.04832795
 Iteration 45 RMS(Cart)=  0.00000126 RMS(Int)=  0.04832908
 Iteration 46 RMS(Cart)=  0.00000103 RMS(Int)=  0.04833001
 Iteration 47 RMS(Cart)=  0.00000084 RMS(Int)=  0.04833076
 GradGradGradGradGradGradGradGradGradGradGradGradGradGradGradGradGradGrad

                          Input orientation:                          
 ---------------------------------------------------------------------
 Center     Atomic      Atomic             Coordinates (Angstroms)
 Number     Number       Type             X           Y           Z
 ---------------------------------------------------------------------
      1          7           0        0.745884    0.494197    0.881463
      2          1           0        1.235521    0.521908    1.778607
      3          6           0        1.671114    1.171226   -0.055099
      4          1           0        2.017555    2.140509    0.314601
      5          1           0        1.054881    1.346717   -0.944551
      6          6           0        2.734648    0.120538   -0.533827
      7          1           0        3.660837    0.295155    0.022942
      8          1           0        2.958943    0.225330   -1.599686
      9          6           0        2.241570   -1.265491   -0.116724
     10          1           0        2.925259   -1.711030    0.612939
     11          1           0        2.151868   -1.980599   -0.940089
     12          6           0        0.896375   -0.934798    0.482928
     13          1           0        0.587237   -1.567262    1.320073
     14          1           0        0.185307   -1.069399   -0.340575
 ---------------------------------------------------------------------
                    Distance matrix (angstroms):
                    1          2          3          4          5
     1  N    0.000000
     2  H    1.022438   0.000000
     3  C    1.480395   1.993447   0.000000
     4  H    2.156113   2.318352   1.093713   0.000000
     5  H    2.038774   2.851058   1.096205   1.772656   0.000000
     6  C    2.469383   2.784929   1.569786   2.305284   2.119865
     7  H    3.045264   3.002654   2.175451   2.488126   2.972008
     8  H    3.335569   3.804077   2.222379   2.866813   2.304813
     9  C    2.515940   2.792706   2.503359   3.440502   2.986161
    10  H    3.112042   3.033151   3.213495   3.968284   3.908185
    11  H    3.379269   3.807038   3.308826   4.309967   3.503489
    12  C    1.491142   1.978837   2.307602   3.277634   2.695947
    13  H    2.113566   2.234985   3.250416   4.099311   3.720012
    14  H    2.062148   2.850639   2.703612   3.753651   2.637909
                    6          7          8          9         10
     6  C    0.000000
     7  H    1.094673   0.000000
     8  H    1.094232   1.769309   0.000000
     9  C    1.529110   2.114106   2.221789   0.000000
    10  H    2.169343   2.216743   2.940465   1.094690   0.000000
    11  H    2.217986   2.895423   2.439788   1.094237   1.755761
    12  C    2.350909   3.060494   3.152358   1.509466   2.176191
    13  H    3.301059   3.820755   4.166937   2.211847   2.446846
    14  H    2.820006   3.751461   3.309794   2.077685   2.971231
                   11         12         13         14
    11  H    0.000000
    12  C    2.166781   0.000000
    13  H    2.779793   1.093796   0.000000
    14  H    2.248791   1.096309   1.779654   0.000000
 Stoichiometry    C4H9N
 Framework group  C1[X(C4H9N)]
 Deg. of freedom    36
 Full point group                 C1      NOp   1
 Largest Abelian subgroup         C1      NOp   1
 Largest concise Abelian subgroup C1      NOp   1
                         Standard orientation:                         
 ---------------------------------------------------------------------
 Center     Atomic      Atomic             Coordinates (Angstroms)
 Number     Number       Type             X           Y           Z
 ---------------------------------------------------------------------
      1          7           0        1.039146   -0.835333   -0.121323
      2          1           0        1.079403   -0.919356   -1.139508
      3          6           0        1.110178    0.623032    0.122998
      4          1           0        1.940670    1.102969   -0.402503
      5          1           0        1.301831    0.694998    1.199918
      6          6           0       -0.333779    1.215753   -0.044036
      7          1           0       -0.394151    1.694422   -1.026656
      8          1           0       -0.552040    1.974978    0.713118
      9          6           0       -1.317230    0.045378   -0.079015
     10          1           0       -1.812598   -0.008877   -1.053701
     11          1           0       -2.109999    0.097812    0.673397
     12          6           0       -0.395550   -1.125158    0.163549
     13          1           0       -0.673335   -2.054202   -0.342518
     14          1           0       -0.435520   -1.289437    1.246742
 ---------------------------------------------------------------------
 Rotational constants (GHZ):           7.1479295           6.4291398           3.8232727
 Standard basis: 6-31G(d) (6D, 7F)
 There are    93 symmetry adapted cartesian basis functions of A   symmetry.
 There are    93 symmetry adapted basis functions of A   symmetry.
    93 basis functions,   176 primitive gaussians,    93 cartesian basis functions
    20 alpha electrons       20 beta electrons
       nuclear repulsion energy       189.6005387680 Hartrees.
 NAtoms=   14 NActive=   14 NUniq=   14 SFac= 1.00D+00 NAtFMM=   60 NAOKFM=F Big=F
 Integral buffers will be    131072 words long.
 Raffenetti 1 integral format.
 Two-electron integral symmetry is turned on.
 One-electron integrals computed using PRISM.
 NBasis=    93 RedAO= T EigKep=  3.17D-03  NBF=    93
 NBsUse=    93 1.00D-06 EigRej= -1.00D+00 NBFU=    93
 Initial guess from the checkpoint file:  "PRLD.scan2.pos.chk"
 B after Tr=     0.000000   -0.000000    0.000000
         Rot=    0.903125    0.008731   -0.001457   -0.429286 Ang=  50.86 deg.
 Keep R1 ints in memory in canonical form, NReq=10436345.
 Requested convergence on RMS density matrix=1.00D-08 within 128 cycles.
 Requested convergence on MAX density matrix=1.00D-06.
 Requested convergence on             energy=1.00D-06.
 No special actions if energy rises.
 SCF Done:  E(RHF) =  -211.129053563     A.U. after   11 cycles
            NFock= 11  Conv=0.71D-08     -V/T= 2.0012
 ExpMin= 1.61D-01 ExpMax= 4.17D+03 ExpMxC= 6.27D+02 IAcc=3 IRadAn=         5 AccDes= 0.00D+00
 HarFok:  IExCor=  205 AccDes= 0.00D+00 IRadAn=         5 IDoV=-2 UseB2=F ITyADJ=14
 ICtDFT= 12500011 ScaDFX=  1.000000  1.000000  1.000000  1.000000
 Range of M.O.s used for correlation:     6    93
 NBasis=    93 NAE=    20 NBE=    20 NFC=     5 NFV=     0
 NROrb=     88 NOA=    15 NOB=    15 NVA=    73 NVB=    73
 Fully direct method using O(ONN) memory.
 JobTyp=1 Pass  1:  I=   6 to  20 NPSUse=  1 ParTrn=F ParDer=F DoDerP=T.
 Spin components of T(2) and E(2):
     alpha-alpha T2 =       0.2806697438D-01 E2=     -0.8428865367D-01
     alpha-beta  T2 =       0.1690490002D+00 E2=     -0.5176751497D+00
     beta-beta   T2 =       0.2806697438D-01 E2=     -0.8428865367D-01
 ANorm=    0.1106879826D+01
 E2 =    -0.6862524570D+00 EUMP2 =    -0.21181530602002D+03
          IDoAtm=11111111111111
          Differentiating once with respect to electric field.
                with respect to dipole field.
          Differentiating once with respect to nuclear coordinates.
 Keep R1 ints in memory in canonical form, NReq=10438735.
          There are     1 degrees of freedom in the 1st order CPHF.  IDoFFX=0 NUNeed=     1.
 LinEq1:  Iter=  0 NonCon=     1 RMS=4.28D-03 Max=3.94D-02 NDo=     1
 AX will form     1 AO Fock derivatives at one time.
 LinEq1:  Iter=  1 NonCon=     1 RMS=1.44D-03 Max=1.09D-02 NDo=     1
 LinEq1:  Iter=  2 NonCon=     1 RMS=3.05D-04 Max=2.79D-03 NDo=     1
 LinEq1:  Iter=  3 NonCon=     1 RMS=6.55D-05 Max=5.07D-04 NDo=     1
 LinEq1:  Iter=  4 NonCon=     1 RMS=1.95D-05 Max=2.27D-04 NDo=     1
 LinEq1:  Iter=  5 NonCon=     1 RMS=7.39D-06 Max=6.62D-05 NDo=     1
 LinEq1:  Iter=  6 NonCon=     1 RMS=1.29D-06 Max=1.64D-05 NDo=     1
 LinEq1:  Iter=  7 NonCon=     1 RMS=3.97D-07 Max=2.80D-06 NDo=     1
 LinEq1:  Iter=  8 NonCon=     1 RMS=9.52D-08 Max=9.38D-07 NDo=     1
 LinEq1:  Iter=  9 NonCon=     1 RMS=2.00D-08 Max=1.83D-07 NDo=     1
 LinEq1:  Iter= 10 NonCon=     1 RMS=5.77D-09 Max=3.99D-08 NDo=     1
 LinEq1:  Iter= 11 NonCon=     1 RMS=1.27D-09 Max=1.13D-08 NDo=     1
 LinEq1:  Iter= 12 NonCon=     1 RMS=3.66D-10 Max=4.63D-09 NDo=     1
 LinEq1:  Iter= 13 NonCon=     0 RMS=7.68D-11 Max=7.19D-10 NDo=     1
 Linear equations converged to 1.000D-10 1.000D-09 after    13 iterations.
 End of Minotr F.D. properties file   721 does not exist.
 End of Minotr F.D. properties file   722 does not exist.
 End of Minotr F.D. properties file   788 does not exist.
 Calling FoFJK, ICntrl=  10002127 FMM=F ISym2X=0 I1Cent= 0 IOpClX= 0 NMat=1 NMatS=1 NMatT=0.
 ***** Axes restored to original set *****
 -------------------------------------------------------------------
 Center     Atomic                   Forces (Hartrees/Bohr)
 Number     Number              X              Y              Z
 -------------------------------------------------------------------
      1        7           0.034408797   -0.014427049    0.008938019
      2        1          -0.003714534    0.005170069    0.007130669
      3        6          -0.018547996   -0.018726666   -0.030067458
      4        1           0.004709153   -0.004714136    0.001649464
      5        1          -0.000196189    0.009622222   -0.000460911
      6        6           0.020846008    0.019142908    0.013867939
      7        1           0.004422259    0.003558784   -0.005245108
      8        1          -0.001127545   -0.000187392    0.001074890
      9        6           0.008105431    0.005590962    0.005902956
     10        1          -0.000063457    0.000539182    0.000433277
     11        1          -0.000887025    0.002383422   -0.000327544
     12        6          -0.040326404   -0.003186050   -0.005413910
     13        1          -0.000855734   -0.001699345   -0.001600162
     14        1          -0.006772764   -0.003066910    0.004117878
 -------------------------------------------------------------------
 Cartesian Forces:  Max     0.040326404 RMS     0.012189542

 GradGradGradGradGradGradGradGradGradGradGradGradGradGradGradGradGradGrad
 Berny optimization.
 FormGI is forming the generalized inverse of G from B-inverse, IUseBI=4.
 Internal  Forces:  Max     0.023786969 RMS     0.006417491
 Search for a local minimum.
 Step number   1 out of a maximum of   90 on scan point     2 out of     7
 All quantities printed in internal units (Hartrees-Bohrs-Radians)
 Mixed Optimization -- RFO/linear search
 Second derivative matrix not updated -- first step.
 ITU=  0
     Eigenvalues ---    0.00312   0.01415   0.02110   0.02750   0.03795
     Eigenvalues ---    0.04471   0.05059   0.05435   0.05470   0.05707
     Eigenvalues ---    0.05885   0.06445   0.07389   0.08065   0.08872
     Eigenvalues ---    0.09803   0.09928   0.11636   0.11730   0.20399
     Eigenvalues ---    0.21990   0.26406   0.27229   0.27431   0.34002
     Eigenvalues ---    0.34134   0.34225   0.34290   0.34297   0.34358
     Eigenvalues ---    0.34374   0.34447   0.34506   0.35259   0.44061
     Eigenvalues --- 1000.000001000.000001000.000001000.000001000.00000
     Eigenvalues --- 1000.000001000.000001000.000001000.000001000.00000
     Eigenvalues --- 1000.000001000.000001000.000001000.000001000.00000
     Eigenvalues --- 1000.000001000.000001000.000001000.000001000.00000
     Eigenvalues --- 1000.000001000.000001000.000001000.000001000.00000
     Eigenvalues --- 1000.000001000.000001000.000001000.000001000.00000
     Eigenvalues --- 1000.000001000.000001000.000001000.000001000.00000
     Eigenvalues --- 1000.000001000.000001000.000001000.000001000.00000
     Eigenvalues --- 1000.000001000.000001000.000001000.000001000.00000
 RFO step:  Lambda=-1.31944646D-02 EMin= 3.11558798D-03
 Linear search not attempted -- first point.
 Iteration  1 RMS(Cart)=  0.05286502 RMS(Int)=  0.00184515
 Iteration  2 RMS(Cart)=  0.00177291 RMS(Int)=  0.00073339
[...]
           A26        110.23017 110.22978 109.88218 109.74359 110.27293
           A27        107.61574 107.83752 107.59566 107.31654 107.17272
           D1         -48.78411 -33.30117 -15.03846   5.00205  25.15928
           D2        -166.07986-150.16679-132.69640-114.03170 -95.31576
           D3          75.49140  90.34769 106.67253 124.70126 143.52860
           D4        -162.43723-146.81064-129.87322-112.86183 -96.53129
           D5          80.26702  96.32374 112.46884 128.10441 142.99366
           D6         -38.16172 -23.16177  -8.16223   6.83737  21.83802
           D7         -75.51267 -75.53011 -84.89854 -99.16568-117.58844
           D8          48.76411  48.51646  39.24535  24.76099   5.23926
           D9         166.07113 166.42149 157.06735 142.63592 123.65210
           D10         38.13090  38.47985  30.35043  18.78235   4.03897
           D11        162.40767 162.52642 154.49432 142.70902 126.86668
           D12        -80.28530 -79.56855 -87.68368 -99.41605-114.72049
           D13        -95.34680-122.26470-139.61202-152.54452-161.33882
           D14        145.34912 118.14745 100.53586  87.20186  77.82319
           D15         23.46315  -0.59226 -16.76174 -29.58527 -38.97247
           D16         27.05461  -0.56469 -18.99142 -32.30869 -40.73255
           D17        -92.24947-120.15255-138.84354-152.56231-161.57053
           D18        145.86456 121.10775 103.85886  90.65055  81.63380
           D19        147.97526 119.39861 100.49272  87.05625  78.98661
           D20         28.67118  -0.18924 -19.35941 -33.19737 -41.85138
           D21        -93.21479-118.92895-136.65700-149.98450-158.64704
           D22       -118.59384 -93.41034 -82.44294 -76.83180 -76.25945
           D23        121.50717 145.78615 156.13898 161.64251 162.78533
           D24         -0.04850  22.91482  33.80700  39.80118  40.84150
           D25         -0.04127  28.39576  39.92528  45.20784  45.40493
           D26       -119.94026 -92.40774 -81.49280 -76.31785 -75.55029
           D27        118.50407 144.72092 156.17522 161.84082 162.50588
           D28        119.84886 147.95081 159.92096 165.98652 167.07444
           D29         -0.05013  27.14731  38.50288  44.46083  46.11921
           D30       -121.60580 -95.72402 -83.82910 -77.38050 -75.82462
           D31        -23.38153 -38.46039 -40.21670 -36.59358 -28.10038
           D32       -145.80137-160.09129-161.65111-158.32856-150.26128
           D33         93.29895  78.28334  77.18787  81.30177  90.06362
           D34         95.42830  78.82541  76.66152  79.98260  88.40377
           D35        -26.99155 -42.80550 -44.77290 -41.75239 -33.75713
           D36       -147.89122-164.43086-165.93391-162.12206-153.43223
           D37       -145.27104-160.83587-162.09324-158.46275-150.58833
           D38         92.30911  77.53322  76.47234  79.80227  87.25078
           D39        -28.59056 -44.09214 -44.68867 -40.56740 -32.42432
                           6         7
     Eigenvalues --    -0.82625  -0.82692
           R1           1.01724   1.02089
           R2           1.46597   1.46442
           R3           1.47927   1.46648
           R4           1.10452   1.10503
           R5           1.09495   1.09435
           R6           1.52295   1.52875
           R7           1.09383   1.09373
           R8           1.09447   1.09249
           R9           1.53121   1.55039
           R10          1.09508   1.09362
           R11          1.09350   1.09275
           R12          1.54186   1.54317
           R13          1.09892   1.10381
           R14          1.09587   1.09413
           A1         111.92899 111.52772
           A2         111.61353 111.14601
           A3         108.09262 102.90351
           A4         113.89068 113.02484
           A5         110.27909 110.96577
           A6         101.89246 100.87301
           A7         107.91171 108.29090
           A8         109.57186 110.23645
           A9         113.34320 113.41465
           A10        113.20921 112.68165
           A11        109.35211 109.38560
           A12        101.78874 103.10895
           A13        108.50966 108.13053
           A14        113.18383 112.92804
           A15        110.65681 110.53753
           A16        109.42808 112.12021
           A17        113.24386 110.93590
           A18        103.92089 104.37122
           A19        107.43650 107.43852
           A20        110.21298 111.13058
           A21        112.57728 110.89615
           A22        105.17819 102.33838
           A23        112.78174 112.62030
           A24        109.33467 110.83375
           A25        110.80105 109.88914
           A26        111.63133 113.15801
           A27        107.18016 108.02017
           D1          42.26842  53.39375
           D2         -79.21592 -68.47877
           D3         160.15345 171.06117
           D4         -81.04752 -65.82966
           D5         157.46814 172.29782
           D6          36.83751  51.83775
           D7        -138.46747-165.24995
           D8         -17.60155 -47.31888
           D9         101.53428  73.82162
           D10        -14.96053 -45.76144
           D11        105.90539  72.16962
           D12       -134.95879-166.68988
           D13       -165.38940-158.36429
           D14         73.49933  81.33116
           D15        -43.58181 -36.30129
           D16        -44.45016 -38.67522
           D17       -165.56143-158.97976
           D18         77.35743  83.38779
           D19         76.14330  82.93554
           D20        -44.96797 -37.36900
           D21       -162.04911-155.00145
           D22        -83.18607-111.35647
           D23        156.99247 128.51998
           D24         34.51645   9.03151
           D25         38.63905  10.54062
           D26        -81.18241-109.58293
           D27        156.34158 130.92860
           D28        160.68105 131.82429
           D29         40.85959  11.70074
           D30        -81.61643-107.78773
           D31        -12.86159  21.43913
           D32       -135.01921 -98.41707
           D33        105.60350 140.74907
           D34        104.29586 142.48741
           D35        -17.86176  22.63121
           D36       -137.23905 -98.20265
           D37       -135.77651 -98.07619
           D38        102.06587 142.06761
           D39        -17.31142  21.23375
 GradGradGradGradGradGradGradGradGradGradGradGradGradGradGradGradGradGrad

                          Input orientation:                          
 ---------------------------------------------------------------------
 Center     Atomic      Atomic             Coordinates (Angstroms)
 Number     Number       Type             X           Y           Z
 ---------------------------------------------------------------------
      1          7           0        0.562667    0.313195    0.121615
      2          1           0       -0.144309    0.722455    0.733906
      3          6           0        1.796283    1.102315    0.122576
      4          1           0        2.193837    1.281669    1.137896
      5          1           0        1.641621    2.071344   -0.361840
      6          6           0        2.731428    0.176520   -0.655554
      7          1           0        3.787615    0.382338   -0.459718
      8          1           0        2.554132    0.298850   -1.726594
      9          6           0        2.294958   -1.236401   -0.189882
     10          1           0        3.060554   -1.723627    0.420426
     11          1           0        2.096474   -1.885726   -1.046081
     12          6           0        1.007496   -0.990536    0.624594
     13          1           0        1.243087   -0.971729    1.702810
     14          1           0        0.241157   -1.753667    0.458845
 ---------------------------------------------------------------------
                    Distance matrix (angstroms):
                    1          2          3          4          5
     1  N    0.000000
     2  H    1.020886   0.000000
     3  C    1.464418   2.069762   0.000000
     4  H    2.152089   2.437797   1.105030   0.000000
     5  H    2.118716   2.491928   1.094347   1.782621   0.000000
     6  C    2.307855   3.240140   1.528751   2.174125   2.205517
     7  H    3.277654   4.123159   2.196095   2.429258   2.732693
     8  H    2.716987   3.676287   2.153909   3.049762   2.415981
     9  C    2.345018   3.261981   2.411617   2.848490   3.376032
    10  H    3.236877   4.043851   3.110151   3.209013   4.126392
    11  H    2.924266   3.871959   3.222462   3.848588   4.041470
    12  C    1.466485   2.067109   2.292212   2.614154   3.278761
    13  H    2.148065   2.394557   2.665488   2.510151   3.698905
    14  H    2.118730   2.520997   3.269270   3.672511   4.155181
                    6          7          8          9         10
     6  C    0.000000
     7  H    1.093730   0.000000
     8  H    1.092486   1.770148   0.000000
     9  C    1.550387   2.218367   2.187613   0.000000
    10  H    2.208305   2.395487   2.992753   1.093619   0.000000
    11  H    2.192837   2.889272   2.333436   1.092747   1.762489
    12  C    2.443919   3.284749   3.095592   1.543172   2.189555
    13  H    3.015877   3.603422   3.885103   2.181460   2.347987
    14  H    3.341998   4.240712   3.786664   2.215063   2.819818
                   11         12         13         14
    11  H    0.000000
    12  C    2.185954   0.000000
    13  H    3.019944   1.103815   0.000000
    14  H    2.392580   1.094128   1.778410   0.000000
 Stoichiometry    C4H9N
 Framework group  C1[X(C4H9N)]
 Deg. of freedom    36
 Full point group                 C1      NOp   1
 Largest Abelian subgroup         C1      NOp   1
 Largest concise Abelian subgroup C1      NOp   1
                         Standard orientation:                         
 ---------------------------------------------------------------------
 Center     Atomic      Atomic             Coordinates (Angstroms)
 Number     Number       Type             X           Y           Z
 ---------------------------------------------------------------------
      1          7           0       -0.361426   -1.092254    0.386381
      2          1           0       -0.689218   -2.023123    0.125149
      3          6           0        0.928965   -0.783405   -0.233317
      4          1           0        0.925285   -0.919110   -1.329976
      5          1           0        1.724384   -1.406373    0.187176
      6          6           0        1.069176    0.698359    0.115677
      7          1           0        1.759370    1.224878   -0.549646
      8          1           0        1.441251    0.796452    1.138156
      9          6           0       -0.386240    1.222849    0.013829
     10          1           0       -0.520914    1.902052   -0.832663
     11          1           0       -0.669500    1.766673    0.918325
     12          6           0       -1.241517   -0.050714   -0.153260
     13          1           0       -1.479011   -0.206292   -1.219937
     14          1           0       -2.183969   -0.011915    0.401172
 ---------------------------------------------------------------------
 Rotational constants (GHZ):           6.9228868           6.8358892           3.9686676

 **********************************************************************

            Population analysis using the SCF density.

 **********************************************************************

 Orbital symmetries:
       Occupied  (A) (A) (A) (A) (A) (A) (A) (A) (A) (A) (A) (A)
                 (A) (A) (A) (A) (A) (A) (A) (A)
       Virtual   (A) (A) (A) (A) (A) (A) (A) (A) (A) (A) (A) (A)
                 (A) (A) (A) (A) (A) (A) (A) (A) (A) (A) (A) (A)
                 (A) (A) (A) (A) (A) (A) (A) (A) (A) (A) (A) (A)
                 (A) (A) (A) (A) (A) (A) (A) (A) (A) (A) (A) (A)
                 (A) (A) (A) (A) (A) (A) (A) (A) (A) (A) (A) (A)
                 (A) (A) (A) (A) (A) (A) (A) (A) (A) (A) (A) (A)
                 (A)
 The electronic state is 1-A.
 Alpha  occ. eigenvalues --  -15.54011 -11.24224 -11.24154 -11.21592 -11.21461
 Alpha  occ. eigenvalues --   -1.21712  -1.01792  -0.96848  -0.80407  -0.77756
 Alpha  occ. eigenvalues --   -0.68489  -0.65419  -0.58615  -0.55373  -0.50962
 Alpha  occ. eigenvalues --   -0.50322  -0.47820  -0.46848  -0.45473  -0.36874
 Alpha virt. eigenvalues --    0.22320   0.25225   0.28456   0.29314   0.30783
 Alpha virt. eigenvalues --    0.32931   0.34135   0.34356   0.36278   0.37577
 Alpha virt. eigenvalues --    0.40724   0.41225   0.46967   0.51573   0.73378
 Alpha virt. eigenvalues --    0.75536   0.77125   0.78961   0.79540   0.86401
 Alpha virt. eigenvalues --    0.91789   0.92467   0.93837   0.96118   0.99906
 Alpha virt. eigenvalues --    1.04197   1.10195   1.11588   1.12442   1.14336
 Alpha virt. eigenvalues --    1.15699   1.16529   1.18079   1.21170   1.21812
 Alpha virt. eigenvalues --    1.24340   1.25410   1.29828   1.51619   1.52333
 Alpha virt. eigenvalues --    1.60897   1.65586   1.70571   1.87262   1.93065
 Alpha virt. eigenvalues --    2.10606   2.11540   2.15350   2.21823   2.23803
 Alpha virt. eigenvalues --    2.30580   2.31567   2.34575   2.40485   2.44043
 Alpha virt. eigenvalues --    2.47351   2.51415   2.58415   2.63500   2.71783
 Alpha virt. eigenvalues --    2.73018   2.82412   2.89277   2.91231   3.02249
 Alpha virt. eigenvalues --    3.03275   3.04517   3.22761   4.35144   4.61622
 Alpha virt. eigenvalues --    4.68251   4.86945   5.05762
          Condensed to atoms (all electrons):
               1          2          3          4          5          6
     1  N    7.141686   0.326884   0.271651  -0.054708  -0.037771  -0.081258
     2  H    0.326884   0.402845  -0.033186  -0.003892  -0.000263   0.006139
     3  C    0.271651  -0.033186   4.968631   0.398222   0.404812   0.350863
     4  H   -0.054708  -0.003892   0.398222   0.607936  -0.036833  -0.050891
     5  H   -0.037771  -0.000263   0.404812  -0.036833   0.524609  -0.028199
     6  C   -0.081258   0.006139   0.350863  -0.050891  -0.028199   5.120320
     7  H    0.004024  -0.000146  -0.036457  -0.001304   0.000361   0.395674
     8  H    0.001817  -0.000181  -0.038350   0.004346  -0.004688   0.399875
     9  C   -0.068449   0.005946  -0.067659  -0.002291   0.004323   0.333978
    10  H    0.003410  -0.000179   0.002615   0.000648  -0.000088  -0.035263
    11  H    0.001960  -0.000121   0.003880  -0.000016  -0.000139  -0.035157
    12  C    0.273290  -0.033302  -0.086719  -0.001543   0.005508  -0.064264
    13  H   -0.054713  -0.004297  -0.002728   0.006933  -0.000357   0.001700
    14  H   -0.038745   0.000076   0.005875  -0.000361  -0.000067   0.003219
               7          8          9         10         11         12
     1  N    0.004024   0.001817  -0.068449   0.003410   0.001960   0.273290
     2  H   -0.000146  -0.000181   0.005946  -0.000179  -0.000121  -0.033302
     3  C   -0.036457  -0.038350  -0.067659   0.002615   0.003880  -0.086719
     4  H   -0.001304   0.004346  -0.002291   0.000648  -0.000016  -0.001543
     5  H    0.000361  -0.004688   0.004323  -0.000088  -0.000139   0.005508
     6  C    0.395674   0.399875   0.333978  -0.035263  -0.035157  -0.064264
     7  H    0.535201  -0.025459  -0.034584  -0.004448   0.002010   0.003623
     8  H   -0.025459   0.524280  -0.037388   0.002937  -0.005925   0.002677
     9  C   -0.034584  -0.037388   5.144244   0.396187   0.399926   0.341807
    10  H   -0.004448   0.002937   0.396187   0.538595  -0.027045  -0.037566
    11  H    0.002010  -0.005925   0.399926  -0.027045   0.523954  -0.035472
    12  C    0.003623   0.002677   0.341807  -0.037566  -0.035472   4.957237
    13  H    0.000128   0.000016  -0.052056  -0.003211   0.003665   0.402649
    14  H   -0.000068  -0.000185  -0.028759   0.001403  -0.004803   0.405542
              13         14
     1  N   -0.054713  -0.038745
     2  H   -0.004297   0.000076
     3  C   -0.002728   0.005875
     4  H    0.006933  -0.000361
     5  H   -0.000357  -0.000067
     6  C    0.001700   0.003219
     7  H    0.000128  -0.000068
     8  H    0.000016  -0.000185
     9  C   -0.052056  -0.028759
    10  H   -0.003211   0.001403
    11  H    0.003665  -0.004803
    12  C    0.402649   0.405542
    13  H    0.603195  -0.037438
    14  H   -0.037438   0.524058
 Mulliken charges:
               1
     1  N   -0.689077
     2  H    0.333678
     3  C   -0.141450
     4  H    0.133754
     5  H    0.168791
     6  C   -0.316736
     7  H    0.161446
     8  H    0.176228
     9  C   -0.335224
    10  H    0.162007
    11  H    0.173283
    12  C   -0.133467
    13  H    0.136513
    14  H    0.170254
 Sum of Mulliken charges =  -0.00000
 Mulliken charges with hydrogens summed into heavy atoms:
               1
     1  N   -0.355398
     3  C    0.161095
     6  C    0.020938
     9  C    0.000065
    12  C    0.173300
 Electronic spatial extent (au):  <R**2>=            386.9948
 Charge=              0.0000 electrons
 Dipole moment (field-independent basis, Debye):
    X=             -0.0689    Y=             -0.0815    Z=             -1.1612  Tot=              1.1661
 Quadrupole moment (field-independent basis, Debye-Ang):
   XX=            -31.5143   YY=            -31.0703   ZZ=            -34.1761
   XY=              0.2311   XZ=              0.3681   YZ=              1.4821
 Traceless Quadrupole moment (field-independent basis, Debye-Ang):
   XX=              0.7393   YY=              1.1832   ZZ=             -1.9225
   XY=              0.2311   XZ=              0.3681   YZ=              1.4821
 Octapole moment (field-independent basis, Debye-Ang**2):
  XXX=             -1.8109  YYY=             -9.2198  ZZZ=             -1.2812  XYY=             -1.8034
  XXY=             -2.2849  XXZ=              1.1737  XZZ=              0.5021  YZZ=              2.3235
  YYZ=             -1.3888  XYZ=             -1.0646
 Hexadecapole moment (field-independent basis, Debye-Ang**3):
 XXXX=           -226.4329 YYYY=           -207.0334 ZZZZ=            -72.9269 XXXY=              0.8467
 XXXZ=             -2.1930 YYYX=              5.7364 YYYZ=              0.1871 ZZZX=              1.3287
 ZZZY=              2.9050 XXYY=            -72.6080 XXZZ=            -49.3139 YYZZ=            -49.9511
 XXYZ=             -1.1834 YYXZ=              0.4990 ZZXY=             -0.3186
 N-N= 1.907403519001D+02 E-N=-8.735973858564D+02  KE= 2.108332234533D+02
 1\1\GINC-C404-002\Scan\RMP2-FC\6-31G(d)\C4H9N1\TG455515\02-Apr-2021\0\
 \# opt=modredundant MP2/6-31g(d) Geom=PrintInputOrient\\PRLD Dihedral/
 Improper Scan\\0,1\N,0.5626668184,0.3131954981,0.1216148381\H,-0.14430
 89488,0.7224548298,0.7339060687\C,1.7962833123,1.1023150426,0.12257631
 76\H,2.1938371187,1.2816691198,1.1378960171\H,1.6416212342,2.071343707
 3,-0.3618398117\C,2.7314276196,0.1765198075,-0.6555538311\H,3.78761485
 39,0.3823379422,-0.4597177939\H,2.5541322526,0.2988501028,-1.726594187
 9\C,2.294957513,-1.2364007416,-0.1898821484\H,3.0605535213,-1.72362655
 34,0.4204258479\H,2.0964741204,-1.8857262039,-1.0460805529\C,1.0074957
 128,-0.9905360828,0.6245942065\H,1.2430869791,-0.9717289458,1.70281033
 62\H,0.2411574918,-1.7536674924,0.4588446579\\Version=ES64L-G16RevA.03
 \State=1-A\HF=-211.1432092,-211.1429403,-211.1426182,-211.1425965,-211
 .14296,-211.1434221,-211.1432507\MP2=-211.8273514,-211.827197,-211.826
 5844,-211.8260558,-211.8259616,-211.8262508,-211.8269246\RMSD=5.189e-0
 9,5.819e-09,3.182e-09,3.365e-09,2.632e-09,6.535e-09,6.547e-09\PG=C01 [
 X(C4H9N1)]\\@


 NATURE WILL TELL YOU A DIRECT LIE IF SHE CAN.

                                -- CHARLES DARWIN
 Job cpu time:       0 days  0 hours 20 minutes  6.8 seconds.
 Elapsed time:       0 days  0 hours 19 minutes 49.7 seconds.
 File lengths (MBytes):  RWF=     10 Int=      0 D2E=      0 Chk=      3 Scr=      1
 Normal termination of Gaussian 16 at Fri Apr  2 19:16:49 2021.
