 Entering Gaussian System, Link 0=g16
 Initial command:
 /home1/apps/gaussian/16rA.03/g16/l1.exe "/tmp/Gau-232089.inp" -scrdir="/tmp/"
 Entering Link 1 = /home1/apps/gaussian/16rA.03/g16/l1.exe PID=    232090.
  
 Copyright (c) 1988,1990,1992,1993,1995,1998,2003,2009,2016,
            Gaussian, Inc.  All Rights Reserved.
  
 This is part of the Gaussian(R) 16 program.  It is based on
 the Gaussian(R) 09 system (copyright 2009, Gaussian, Inc.),
 the Gaussian(R) 03 system (copyright 2003, Gaussian, Inc.),
 the Gaussian(R) 98 system (copyright 1998, Gaussian, Inc.),
 the Gaussian(R) 94 system (copyright 1995, Gaussian, Inc.),
 the Gaussian 92(TM) system (copyright 1992, Gaussian, Inc.),
 the Gaussian 90(TM) system (copyright 1990, Gaussian, Inc.),
 the Gaussian 88(TM) system (copyright 1988, Gaussian, Inc.),
 the Gaussian 86(TM) system (copyright 1986, Carnegie Mellon
 University), and the Gaussian 82(TM) system (copyright 1983,
 Carnegie Mellon University). Gaussian is a federally registered
 trademark of Gaussian, Inc.
  
 This software contains proprietary and confidential information,
 including trade secrets, belonging to Gaussian, Inc.
  
 This software is provided under written license and may be
 used, copied, transmitted, or stored only in accord with that
 written license.
  
 The following legend is applicable only to US Government
 contracts under FAR:
  
                    RESTRICTED RIGHTS LEGEND
  
 Use, reproduction and disclosure by the US Government is
 subject to restrictions as set forth in subparagraphs (a)
 and (c) of the Commercial Computer Software - Restricted
 Rights clause in FAR 52.227-19.
  
 Gaussian, Inc.
 340 Quinnipiac St., Bldg. 40, Wallingford CT 06492
  
  
 ---------------------------------------------------------------
 Warning -- This program may not be used in any manner that
 competes with the business of Gaussian, Inc. or will provide
 assistance to any competitor of Gaussian, Inc.  The licensee
 of this program is prohibited from giving any competitor of
 Gaussian, Inc. access to this program.  By using this program,
 the user acknowledges that Gaussian, Inc. is engaged in the
 business of creating and licensing software in the field of
 computational chemistry and represents and warrants to the
 licensee that it is not a competitor of Gaussian, Inc. and that
 it will not use this program in any manner prohibited above.
 ---------------------------------------------------------------
  

 Cite this work as:
 Gaussian 16, Revision A.03,
 M. J. Frisch, G. W. Trucks, H. B. Schlegel, G. E. Scuseria, 
 M. A. Robb, J. R. Cheeseman, G. Scalmani, V. Barone, 
 G. A. Petersson, H. Nakatsuji, X. Li, M. Caricato, A. V. Marenich, 
 J. Bloino, B. G. Janesko, R. Gomperts, B. Mennucci, H. P. Hratchian, 
 J. V. Ortiz, A. F. Izmaylov, J. L. Sonnenberg, D. Williams-Young, 
 F. Ding, F. Lipparini, F. Egidi, J. Goings, B. Peng, A. Petrone, 
 T. Henderson, D. Ranasinghe, V. G. Zakrzewski, J. Gao, N. Rega, 
 G. Zheng, W. Liang, M. Hada, M. Ehara, K. Toyota, R. Fukuda, 
 J. Hasegawa, M. Ishida, T. Nakajima, Y. Honda, O. Kitao, H. Nakai, 
 T. Vreven, K. Throssell, J. A. Montgomery, Jr., J. E. Peralta, 
 F. Ogliaro, M. J. Bearpark, J. J. Heyd, E. N. Brothers, K. N. Kudin, 
 V. N. Staroverov, T. A. Keith, R. Kobayashi, J. Normand, 
 K. Raghavachari, A. P. Rendell, J. C. Burant, S. S. Iyengar, 
 J. Tomasi, M. Cossi, J. M. Millam, M. Klene, C. Adamo, R. Cammi, 
 J. W. Ochterski, R. L. Martin, K. Morokuma, O. Farkas, 
 J. B. Foresman, and D. J. Fox, Gaussian, Inc., Wallingford CT, 2016.
 
 ******************************************
 Gaussian 16:  ES64L-G16RevA.03 25-Dec-2016
                 2-Apr-2021 
 ******************************************
 %chk=PRLD.scan2.neg.chk
 %nproc=1
 Will use up to    1 processors via shared memory.
 %mem=1GB
 -----------------------------------------------------
 # opt=modredundant MP2/6-31g(d) Geom=PrintInputOrient
 -----------------------------------------------------
 1/18=120,19=15,38=1/1,3;
 2/9=2110,12=2,17=6,18=5,40=1/2;
 3/5=1,6=6,7=1,11=9,25=1,30=1,71=1/1,2,3;
 4//1;
 5/5=2,38=5/2;
 8/6=4,10=2/1;
 9/15=2,16=-3/6;
 10/5=1/2;
 6/7=2,8=2,9=2,10=2/1;
 7/12=2/1,2,3,16;
 1/18=20,19=15/3(2);
 2/9=2110/2;
 99//99;
 2/9=2110/2;
 3/5=1,6=6,7=1,11=9,25=1,30=1,71=1/1,2,3;
 4/5=5,16=3,69=1/1;
 5/5=2,38=5/2;
 8/6=4,10=2/1;
 9/15=2,16=-3/6;
 10/5=1/2;
 7/12=2/1,2,3,16;
 1/18=20,19=15/3(-8);
 2/9=2110/2;
 6/7=2,8=2,9=2,10=2/1;
 99//99;
 ---------------------------
 PRLD Dihedral/Improper Scan
 ---------------------------
 Symbolic Z-matrix:
 Charge =  0 Multiplicity = 1
 N1                    0.844     0.456     0.923 
 H2                    1.372     0.495     1.798 
 C3                    1.643     1.125    -0.113 
 H4                    2.        2.097     0.243 
 H5                    0.987     1.307    -0.971 
 C6                    2.779     0.153    -0.504 
 H7                    3.689     0.384     0.059 
 H8                    3.031     0.222    -1.566 
 C9                    2.231    -1.24     -0.112 
 H10                   2.866    -1.707     0.647 
 H11                   2.185    -1.928    -0.962 
 C12                   0.83     -0.941     0.469 
 H13                   0.542    -1.609     1.286 
 H14                   0.068    -1.027    -0.314 
 
 The following ModRedundant input section has been read:
 D      12       1       3       6 S   6 -15.00                                
 

 GradGradGradGradGradGradGradGradGradGradGradGradGradGradGradGradGradGrad
 Berny optimization.
 Initialization pass.
                           ----------------------------
                           !    Initial Parameters    !
                           ! (Angstroms and Degrees)  !
 --------------------------                            --------------------------
 ! Name  Definition              Value          Derivative Info.                !
 --------------------------------------------------------------------------------
 ! R1    R(1,2)                  1.0227         estimate D2E/DX2                !
 ! R2    R(1,3)                  1.4694         estimate D2E/DX2                !
 ! R3    R(1,12)                 1.469          estimate D2E/DX2                !
 ! R4    R(3,4)                  1.095          estimate D2E/DX2                !
 ! R5    R(3,5)                  1.0953         estimate D2E/DX2                !
 ! R6    R(3,6)                  1.5454         estimate D2E/DX2                !
 ! R7    R(6,7)                  1.0947         estimate D2E/DX2                !
 ! R8    R(6,8)                  1.0937         estimate D2E/DX2                !
 ! R9    R(6,9)                  1.5474         estimate D2E/DX2                !
 ! R10   R(9,10)                 1.0943         estimate D2E/DX2                !
 ! R11   R(9,11)                 1.0945         estimate D2E/DX2                !
 ! R12   R(9,12)                 1.5459         estimate D2E/DX2                !
 ! R13   R(12,13)                1.0939         estimate D2E/DX2                !
 ! R14   R(12,14)                1.096          estimate D2E/DX2                !
 ! A1    A(2,1,3)              107.7654         estimate D2E/DX2                !
 ! A2    A(2,1,12)             107.7946         estimate D2E/DX2                !
 ! A3    A(3,1,12)             102.7239         estimate D2E/DX2                !
 ! A4    A(1,3,4)              110.6221         estimate D2E/DX2                !
 ! A5    A(1,3,5)              107.5946         estimate D2E/DX2                !
 ! A6    A(1,3,6)              106.9617         estimate D2E/DX2                !
 ! A7    A(4,3,5)              107.6053         estimate D2E/DX2                !
 ! A8    A(4,3,6)              113.6363         estimate D2E/DX2                !
 ! A9    A(5,3,6)              110.279          estimate D2E/DX2                !
 ! A10   A(3,6,7)              110.3782         estimate D2E/DX2                !
 ! A11   A(3,6,8)              112.0481         estimate D2E/DX2                !
 ! A12   A(3,6,9)              103.9924         estimate D2E/DX2                !
 ! A13   A(7,6,8)              107.1301         estimate D2E/DX2                !
 ! A14   A(7,6,9)              110.7358         estimate D2E/DX2                !
 ! A15   A(8,6,9)              112.6059         estimate D2E/DX2                !
 ! A16   A(6,9,10)             110.7565         estimate D2E/DX2                !
 ! A17   A(6,9,11)             112.5829         estimate D2E/DX2                !
 ! A18   A(6,9,12)             104.0073         estimate D2E/DX2                !
 ! A19   A(10,9,11)            107.145          estimate D2E/DX2                !
 ! A20   A(10,9,12)            110.3511         estimate D2E/DX2                !
 ! A21   A(11,9,12)            112.0469         estimate D2E/DX2                !
 ! A22   A(1,12,9)             106.9451         estimate D2E/DX2                !
 ! A23   A(1,12,13)            110.635          estimate D2E/DX2                !
 ! A24   A(1,12,14)            107.581          estimate D2E/DX2                !
 ! A25   A(9,12,13)            113.6523         estimate D2E/DX2                !
 ! A26   A(9,12,14)            110.2689         estimate D2E/DX2                !
 ! A27   A(13,12,14)           107.615          estimate D2E/DX2                !
 ! D1    D(2,1,3,4)            -48.7385         estimate D2E/DX2                !
 ! D2    D(2,1,3,5)           -166.0198         estimate D2E/DX2                !
 ! D3    D(2,1,3,6)             75.4998         estimate D2E/DX2                !
 ! D4    D(12,1,3,4)          -162.4            estimate D2E/DX2                !
 ! D5    D(12,1,3,5)            80.3186         estimate D2E/DX2                !
 ! D6    D(12,1,3,6)           -38.1617         Scan                            !
 ! D7    D(2,1,12,9)           -75.5014         estimate D2E/DX2                !
 ! D8    D(2,1,12,13)           48.7538         estimate D2E/DX2                !
 ! D9    D(2,1,12,14)          166.0459         estimate D2E/DX2                !
 ! D10   D(3,1,12,9)            38.1387         estimate D2E/DX2                !
 ! D11   D(3,1,12,13)          162.3939         estimate D2E/DX2                !
 ! D12   D(3,1,12,14)          -80.314          estimate D2E/DX2                !
 ! D13   D(1,3,6,7)            -95.3684         estimate D2E/DX2                !
 ! D14   D(1,3,6,8)            145.3276         estimate D2E/DX2                !
 ! D15   D(1,3,6,9)             23.4354         estimate D2E/DX2                !
 ! D16   D(4,3,6,7)             27.004          estimate D2E/DX2                !
 ! D17   D(4,3,6,8)            -92.2999         estimate D2E/DX2                !
 ! D18   D(4,3,6,9)            145.8078         estimate D2E/DX2                !
 ! D19   D(5,3,6,7)            147.9132         estimate D2E/DX2                !
 ! D20   D(5,3,6,8)             28.6092         estimate D2E/DX2                !
 ! D21   D(5,3,6,9)            -93.2831         estimate D2E/DX2                !
 ! D22   D(3,6,9,10)          -118.5629         estimate D2E/DX2                !
 ! D23   D(3,6,9,11)           121.4993         estimate D2E/DX2                !
 ! D24   D(3,6,9,12)            -0.0176         estimate D2E/DX2                !
 ! D25   D(7,6,9,10)            -0.0044         estimate D2E/DX2                !
 ! D26   D(7,6,9,11)          -119.9421         estimate D2E/DX2                !
 ! D27   D(7,6,9,12)           118.541          estimate D2E/DX2                !
 ! D28   D(8,6,9,10)           119.9156         estimate D2E/DX2                !
 ! D29   D(8,6,9,11)            -0.0222         estimate D2E/DX2                !
 ! D30   D(8,6,9,12)          -121.5391         estimate D2E/DX2                !
 ! D31   D(6,9,12,1)           -23.4104         estimate D2E/DX2                !
 ! D32   D(6,9,12,13)         -145.7976         estimate D2E/DX2                !
 ! D33   D(6,9,12,14)           93.2771         estimate D2E/DX2                !
 ! D34   D(10,9,12,1)           95.4127         estimate D2E/DX2                !
 ! D35   D(10,9,12,13)         -26.9744         estimate D2E/DX2                !
 ! D36   D(10,9,12,14)        -147.8998         estimate D2E/DX2                !
 ! D37   D(11,9,12,1)         -145.2836         estimate D2E/DX2                !
 ! D38   D(11,9,12,13)          92.3293         estimate D2E/DX2                !
 ! D39   D(11,9,12,14)         -28.5961         estimate D2E/DX2                !
 --------------------------------------------------------------------------------
 Trust Radius=3.00D-01 FncErr=1.00D-07 GrdErr=1.00D-07 EigMax=2.50D+02 EigMin=1.00D-04
 Number of optimizations in scan=   7
 Number of steps in this run=     90 maximum allowed number of steps=    100.
 GradGradGradGradGradGradGradGradGradGradGradGradGradGradGradGradGradGrad

                          Input orientation:                          
 ---------------------------------------------------------------------
 Center     Atomic      Atomic             Coordinates (Angstroms)
 Number     Number       Type             X           Y           Z
 ---------------------------------------------------------------------
      1          7           0        0.844000    0.456000    0.923000
      2          1           0        1.372000    0.495000    1.798000
      3          6           0        1.643000    1.125000   -0.113000
      4          1           0        2.000000    2.097000    0.243000
      5          1           0        0.987000    1.307000   -0.971000
      6          6           0        2.779000    0.153000   -0.504000
      7          1           0        3.689000    0.384000    0.059000
      8          1           0        3.031000    0.222000   -1.566000
      9          6           0        2.231000   -1.240000   -0.112000
     10          1           0        2.866000   -1.707000    0.647000
     11          1           0        2.185000   -1.928000   -0.962000
     12          6           0        0.830000   -0.941000    0.469000
     13          1           0        0.542000   -1.609000    1.286000
     14          1           0        0.068000   -1.027000   -0.314000
 ---------------------------------------------------------------------
                    Distance matrix (angstroms):
                    1          2          3          4          5
     1  N    0.000000
     2  H    1.022707   0.000000
     3  C    1.469441   2.030335   0.000000
     4  H    2.119343   2.319227   1.094974   0.000000
     5  H    2.081318   2.911173   1.095274   1.767502   0.000000
     6  C    2.423296   2.719525   1.545368   2.223508   2.181987
     7  H    2.974173   2.899126   2.182838   2.412664   3.035397
     8  H    3.321573   3.760759   2.202989   2.801975   2.389390
     9  C    2.423099   2.719597   2.437000   3.363771   2.961862
    10  H    2.973757   2.899248   3.177035   3.922192   3.902917
    11  H    3.321891   3.761582   3.214868   4.205577   3.449712
    12  C    1.468986   2.030296   2.295223   3.263345   2.674276
    13  H    2.118301   2.319021   3.262539   4.116801   3.714180
    14  H    2.081258   2.911605   2.674347   3.715138   2.593023
                    6          7          8          9         10
     6  C    0.000000
     7  H    1.094728   0.000000
     8  H    1.093668   1.760634   0.000000
     9  C    1.547390   2.189151   2.211687   0.000000
    10  H    2.189057   2.322790   2.940346   1.094255   0.000000
    11  H    2.212049   2.941054   2.388102   1.094514   1.761103
    12  C    2.437656   3.177673   3.215306   1.545886   2.182598
    13  H    3.363467   3.921886   4.204948   2.223350   2.412240
    14  H    2.962773   3.904061   3.450634   2.182829   3.035577
                   11         12         13         14
    11  H    0.000000
    12  C    2.204077   0.000000
    13  H    2.802626   1.093918   0.000000
    14  H    2.390271   1.095960   1.767314   0.000000
 Stoichiometry    C4H9N
 Framework group  C1[X(C4H9N)]
 Deg. of freedom    36
 Full point group                 C1      NOp   1
 Largest Abelian subgroup         C1      NOp   1
 Largest concise Abelian subgroup C1      NOp   1
                         Standard orientation:                         
 ---------------------------------------------------------------------
 Center     Atomic      Atomic             Coordinates (Angstroms)
 Number     Number       Type             X           Y           Z
 ---------------------------------------------------------------------
      1          7           0       -0.009754   -1.267896   -0.216048
      2          1           0       -0.009609   -1.307741   -1.237979
      3          6           0        1.144047   -0.459296    0.201285
      4          1           0        2.052841   -0.790293   -0.312042
      5          1           0        1.291688   -0.622098    1.274281
      6          6           0        0.781546    1.017994   -0.071425
      7          1           0        1.171547    1.332796   -1.044681
      8          1           0        1.207027    1.690375    0.678894
      9          6           0       -0.765800    1.029688   -0.071443
     10          1           0       -1.151178    1.350244   -1.044131
     11          1           0       -1.181004    1.708768    0.679833
     12          6           0       -1.151114   -0.442432    0.200878
     13          1           0       -2.063843   -0.759288   -0.312137
     14          1           0       -1.301266   -0.603214    1.274532
 ---------------------------------------------------------------------
 Rotational constants (GHZ):           6.8866106           6.6914801           3.9136725
 Standard basis: 6-31G(d) (6D, 7F)
 There are    93 symmetry adapted cartesian basis functions of A   symmetry.
 There are    93 symmetry adapted basis functions of A   symmetry.
    93 basis functions,   176 primitive gaussians,    93 cartesian basis functions
    20 alpha electrons       20 beta electrons
       nuclear repulsion energy       190.0136865772 Hartrees.
 NAtoms=   14 NActive=   14 NUniq=   14 SFac= 1.00D+00 NAtFMM=   60 NAOKFM=F Big=F
 Integral buffers will be    131072 words long.
 Raffenetti 1 integral format.
 Two-electron integral symmetry is turned on.
 One-electron integrals computed using PRISM.
 NBasis=    93 RedAO= T EigKep=  3.15D-03  NBF=    93
 NBsUse=    93 1.00D-06 EigRej= -1.00D+00 NBFU=    93
 ExpMin= 1.61D-01 ExpMax= 4.17D+03 ExpMxC= 6.27D+02 IAcc=3 IRadAn=         5 AccDes= 0.00D+00
 Harris functional with IExCor=  205 and IRadAn=       5 diagonalized for initial guess.
 HarFok:  IExCor=  205 AccDes= 0.00D+00 IRadAn=         5 IDoV= 1 UseB2=F ITyADJ=14
 ICtDFT=  3500011 ScaDFX=  1.000000  1.000000  1.000000  1.000000
 FoFCou: FMM=F IPFlag=           0 FMFlag=      100000 FMFlg1=           0
         NFxFlg=           0 DoJE=T BraDBF=F KetDBF=T FulRan=T
         wScrn=  0.000000 ICntrl=       500 IOpCl=  0 I1Cent=   200000004 NGrid=           0
         NMat0=    1 NMatS0=      1 NMatT0=    0 NMatD0=    1 NMtDS0=    0 NMtDT0=    0
 Petite list used in FoFCou.
 Keep R1 ints in memory in canonical form, NReq=10436288.
 Requested convergence on RMS density matrix=1.00D-08 within 128 cycles.
 Requested convergence on MAX density matrix=1.00D-06.
 Requested convergence on             energy=1.00D-06.
 No special actions if energy rises.
 SCF Done:  E(RHF) =  -211.143200098     A.U. after   12 cycles
            NFock= 12  Conv=0.39D-08     -V/T= 2.0015
 ExpMin= 1.61D-01 ExpMax= 4.17D+03 ExpMxC= 6.27D+02 IAcc=3 IRadAn=         5 AccDes= 0.00D+00
 HarFok:  IExCor=  205 AccDes= 0.00D+00 IRadAn=         5 IDoV=-2 UseB2=F ITyADJ=14
 ICtDFT= 12500011 ScaDFX=  1.000000  1.000000  1.000000  1.000000
 Range of M.O.s used for correlation:     6    93
 NBasis=    93 NAE=    20 NBE=    20 NFC=     5 NFV=     0
 NROrb=     88 NOA=    15 NOB=    15 NVA=    73 NVB=    73
 Fully direct method using O(ONN) memory.
 JobTyp=1 Pass  1:  I=   6 to  20 NPSUse=  1 ParTrn=F ParDer=F DoDerP=T.
 Spin components of T(2) and E(2):
     alpha-alpha T2 =       0.2790801328D-01 E2=     -0.8405127363D-01
     alpha-beta  T2 =       0.1679168201D+00 E2=     -0.5160463410D+00
     beta-beta   T2 =       0.2790801328D-01 E2=     -0.8405127363D-01
 ANorm=    0.1106224591D+01
 E2 =    -0.6841488883D+00 EUMP2 =    -0.21182734898599D+03
          IDoAtm=11111111111111
          Differentiating once with respect to electric field.
                with respect to dipole field.
          Differentiating once with respect to nuclear coordinates.
 Keep R1 ints in memory in canonical form, NReq=10438744.
          There are     1 degrees of freedom in the 1st order CPHF.  IDoFFX=0 NUNeed=     1.
 LinEq1:  Iter=  0 NonCon=     1 RMS=4.26D-03 Max=4.54D-02 NDo=     1
 AX will form     1 AO Fock derivatives at one time.
 LinEq1:  Iter=  1 NonCon=     1 RMS=1.43D-03 Max=1.40D-02 NDo=     1
 LinEq1:  Iter=  2 NonCon=     1 RMS=2.90D-04 Max=3.43D-03 NDo=     1
 LinEq1:  Iter=  3 NonCon=     1 RMS=5.58D-05 Max=4.08D-04 NDo=     1
 LinEq1:  Iter=  4 NonCon=     1 RMS=1.18D-05 Max=1.55D-04 NDo=     1
 LinEq1:  Iter=  5 NonCon=     1 RMS=4.47D-06 Max=3.98D-05 NDo=     1
 LinEq1:  Iter=  6 NonCon=     1 RMS=1.05D-06 Max=1.56D-05 NDo=     1
 LinEq1:  Iter=  7 NonCon=     1 RMS=1.91D-07 Max=1.83D-06 NDo=     1
 LinEq1:  Iter=  8 NonCon=     1 RMS=6.29D-08 Max=5.75D-07 NDo=     1
 LinEq1:  Iter=  9 NonCon=     1 RMS=1.37D-08 Max=1.24D-07 NDo=     1
 LinEq1:  Iter= 10 NonCon=     1 RMS=3.65D-09 Max=2.96D-08 NDo=     1
 LinEq1:  Iter= 11 NonCon=     1 RMS=6.11D-10 Max=7.96D-09 NDo=     1
 LinEq1:  Iter= 12 NonCon=     1 RMS=1.20D-10 Max=1.50D-09 NDo=     1
 LinEq1:  Iter= 13 NonCon=     0 RMS=1.91D-11 Max=1.76D-10 NDo=     1
 Linear equations converged to 1.000D-10 1.000D-09 after    13 iterations.
 End of Minotr F.D. properties file   721 does not exist.
 End of Minotr F.D. properties file   722 does not exist.
 End of Minotr F.D. properties file   788 does not exist.

 **********************************************************************

            Population analysis using the SCF density.

 **********************************************************************

 Orbital symmetries:
       Occupied  (A) (A) (A) (A) (A) (A) (A) (A) (A) (A) (A) (A)
                 (A) (A) (A) (A) (A) (A) (A) (A)
       Virtual   (A) (A) (A) (A) (A) (A) (A) (A) (A) (A) (A) (A)
                 (A) (A) (A) (A) (A) (A) (A) (A) (A) (A) (A) (A)
                 (A) (A) (A) (A) (A) (A) (A) (A) (A) (A) (A) (A)
                 (A) (A) (A) (A) (A) (A) (A) (A) (A) (A) (A) (A)
                 (A) (A) (A) (A) (A) (A) (A) (A) (A) (A) (A) (A)
                 (A) (A) (A) (A) (A) (A) (A) (A) (A) (A) (A) (A)
                 (A)
 The electronic state is 1-A.
 Alpha  occ. eigenvalues --  -15.54076 -11.24200 -11.24195 -11.21855 -11.21799
 Alpha  occ. eigenvalues --   -1.21663  -1.01921  -0.96899  -0.81410  -0.78334
 Alpha  occ. eigenvalues --   -0.67516  -0.63699  -0.58968  -0.58396  -0.50622
 Alpha  occ. eigenvalues --   -0.49289  -0.47912  -0.47626  -0.45740  -0.37275
 Alpha virt. eigenvalues --    0.21279   0.24725   0.28660   0.29029   0.30117
 Alpha virt. eigenvalues --    0.32558   0.33858   0.33958   0.36392   0.37738
 Alpha virt. eigenvalues --    0.40785   0.41401   0.48517   0.52442   0.72779
 Alpha virt. eigenvalues --    0.76267   0.76616   0.79767   0.80365   0.83842
 Alpha virt. eigenvalues --    0.90478   0.92044   0.92595   0.94963   1.01860
 Alpha virt. eigenvalues --    1.02452   1.09480   1.10988   1.12808   1.13150
 Alpha virt. eigenvalues --    1.15438   1.17173   1.19496   1.20850   1.21106
 Alpha virt. eigenvalues --    1.23722   1.24020   1.24151   1.49539   1.52543
 Alpha virt. eigenvalues --    1.59180   1.59545   1.69288   1.90975   2.00838
 Alpha virt. eigenvalues --    2.08684   2.12260   2.13555   2.19833   2.22442
 Alpha virt. eigenvalues --    2.29045   2.31775   2.35028   2.42288   2.43267
 Alpha virt. eigenvalues --    2.43361   2.51046   2.57266   2.59218   2.71449
 Alpha virt. eigenvalues --    2.73627   2.81719   2.90009   2.95574   2.97825
 Alpha virt. eigenvalues --    2.98905   3.02819   3.24107   4.34967   4.60737
 Alpha virt. eigenvalues --    4.68019   4.86124   5.04389
          Condensed to atoms (all electrons):
               1          2          3          4          5          6
     1  N    7.058662   0.327541   0.294203  -0.033404  -0.047556  -0.084999
     2  H    0.327541   0.433304  -0.042392  -0.005379   0.005680  -0.000687
     3  C    0.294203  -0.042392   4.977886   0.403748   0.406065   0.333688
     4  H   -0.033404  -0.005379   0.403748   0.521240  -0.026325  -0.035555
     5  H   -0.047556   0.005680   0.406065  -0.026325   0.544869  -0.053864
     6  C   -0.084999  -0.000687   0.333688  -0.035555  -0.053864   5.205597
     7  H    0.002637   0.000959  -0.038300  -0.004204   0.003824   0.396024
     8  H    0.004386  -0.000026  -0.032387   0.001335  -0.002463   0.391464
     9  C   -0.085089  -0.000691  -0.061393   0.003840  -0.000390   0.321496
    10  H    0.002649   0.000958   0.003257  -0.000161  -0.000013  -0.038489
    11  H    0.004384  -0.000026   0.002984  -0.000064   0.000166  -0.033459
    12  C    0.294002  -0.042370  -0.094809   0.006117  -0.001884  -0.061284
    13  H   -0.033416  -0.005385   0.006123  -0.000114  -0.000171   0.003829
    14  H   -0.047622   0.005682  -0.001900  -0.000171   0.003456  -0.000382
               7          8          9         10         11         12
     1  N    0.002637   0.004386  -0.085089   0.002649   0.004384   0.294002
     2  H    0.000959  -0.000026  -0.000691   0.000958  -0.000026  -0.042370
     3  C   -0.038300  -0.032387  -0.061393   0.003257   0.002984  -0.094809
     4  H   -0.004204   0.001335   0.003840  -0.000161  -0.000064   0.006117
     5  H    0.003824  -0.002463  -0.000390  -0.000013   0.000166  -0.001884
     6  C    0.396024   0.391464   0.321496  -0.038489  -0.033459  -0.061284
     7  H    0.542616  -0.025836  -0.038527  -0.006280   0.002599   0.003251
     8  H   -0.025836   0.527014  -0.033400   0.002596  -0.003631   0.002974
     9  C   -0.038527  -0.033400   5.205831   0.395992   0.391377   0.333836
    10  H   -0.006280   0.002596   0.395992   0.542443  -0.025801  -0.038327
    11  H    0.002599  -0.003631   0.391377  -0.025801   0.527314  -0.032361
    12  C    0.003251   0.002974   0.333836  -0.038327  -0.032361   4.977646
    13  H   -0.000161  -0.000063  -0.035505  -0.004188   0.001332   0.403827
    14  H   -0.000013   0.000165  -0.053852   0.003822  -0.002460   0.406044
              13         14
     1  N   -0.033416  -0.047622
     2  H   -0.005385   0.005682
     3  C    0.006123  -0.001900
     4  H   -0.000114  -0.000171
     5  H   -0.000171   0.003456
     6  C    0.003829  -0.000382
     7  H   -0.000161  -0.000013
     8  H   -0.000063   0.000165
     9  C   -0.035505  -0.053852
    10  H   -0.004188   0.003822
    11  H    0.001332  -0.002460
    12  C    0.403827   0.406044
    13  H    0.520894  -0.026326
    14  H   -0.026326   0.545162
 Mulliken charges:
               1
     1  N   -0.656379
     2  H    0.322831
     3  C   -0.156772
     4  H    0.169095
     5  H    0.168606
     6  C   -0.343380
     7  H    0.161410
     8  H    0.167872
     9  C   -0.343527
    10  H    0.161542
    11  H    0.167645
    12  C   -0.156662
    13  H    0.169324
    14  H    0.168395
 Sum of Mulliken charges =  -0.00000
 Mulliken charges with hydrogens summed into heavy atoms:
               1
     1  N   -0.333548
     3  C    0.180929
     6  C   -0.014098
     9  C   -0.014340
    12  C    0.181057
 Electronic spatial extent (au):  <R**2>=            390.2955
 Charge=             -0.0000 electrons
 Dipole moment (field-independent basis, Debye):
    X=              0.0108    Y=              1.4000    Z=             -0.6708  Tot=              1.5525
 Quadrupole moment (field-independent basis, Debye-Ang):
   XX=            -31.4430   YY=            -37.4386   ZZ=            -30.3356
   XY=             -0.0423   XZ=              0.0141   YZ=              1.4414
 Traceless Quadrupole moment (field-independent basis, Debye-Ang):
   XX=              1.6294   YY=             -4.3662   ZZ=              2.7368
   XY=             -0.0423   XZ=              0.0141   YZ=              1.4414
 Octapole moment (field-independent basis, Debye-Ang**2):
  XXX=             -0.0557  YYY=              7.4680  ZZZ=             -2.5630  XYY=              0.0925
  XXY=             -2.2856  XXZ=             -1.0006  XZZ=             -0.0165  YZZ=             -2.3218
  YYZ=             -1.4684  XYZ=             -0.0024
 Hexadecapole moment (field-independent basis, Debye-Ang**3):
 XXXX=           -226.6934 YYYY=           -248.7377 ZZZZ=            -65.8087 XXXY=              0.0072
 XXXZ=              0.0625 YYYX=             -0.1840 YYYZ=              5.7507 ZZZX=              0.0341
 ZZZY=              3.2304 XXYY=            -75.0449 XXZZ=            -48.5104 YYZZ=            -45.1589
 XXYZ=              2.0821 YYXZ=              0.0159 ZZXY=              0.0194
 N-N= 1.900136865772D+02 E-N=-8.720763185249D+02  KE= 2.108304137868D+02
 Calling FoFJK, ICntrl=  10002127 FMM=F ISym2X=0 I1Cent= 0 IOpClX= 0 NMat=1 NMatS=1 NMatT=0.
 ***** Axes restored to original set *****
 -------------------------------------------------------------------
 Center     Atomic                   Forces (Hartrees/Bohr)
 Number     Number              X              Y              Z
 -------------------------------------------------------------------
      1        7           0.000067218    0.000324295    0.000355385
      2        1          -0.000147219   -0.000035560   -0.000241089
      3        6           0.000758105    0.000773310    0.000735129
      4        1          -0.000288273   -0.000698691   -0.000271797
      5        1          -0.000308412    0.000033250   -0.000433494
      6        6          -0.000098258    0.000152779    0.000315185
      7        1          -0.000099833   -0.000004959   -0.000060197
      8        1           0.000110722   -0.000045813   -0.000301852
      9        6          -0.000507108   -0.000177978   -0.000275408
     10        1           0.000133008   -0.000094664    0.000103544
     11        1           0.000074374    0.000132703    0.000198827
     12        6           0.000296758   -0.000382461    0.000076681
     13        1           0.000028013    0.000050298   -0.000099903
     14        1          -0.000019094   -0.000026509   -0.000101012
 -------------------------------------------------------------------
 Cartesian Forces:  Max     0.000773310 RMS     0.000306300

 GradGradGradGradGradGradGradGradGradGradGradGradGradGradGradGradGradGrad
 Berny optimization.
 FormGI is forming the generalized inverse of G from B-inverse, IUseBI=4.
 Internal  Forces:  Max     0.000802576 RMS     0.000137397
 Search for a local minimum.
 Step number   1 out of a maximum of   90 on scan point     1 out of     7
 All quantities printed in internal units (Hartrees-Bohrs-Radians)
 Mixed Optimization -- En-DIIS/RFO-DIIS
 Second derivative matrix not updated -- first step.
 ITU=  0
     Eigenvalues ---    0.00323   0.01552   0.02308   0.02519   0.04337
     Eigenvalues ---    0.04381   0.04969   0.05400   0.05525   0.05681
     Eigenvalues ---    0.05842   0.06889   0.06892   0.08231   0.08733
     Eigenvalues ---    0.08798   0.09329   0.11006   0.11214   0.19069
     Eigenvalues ---    0.21179   0.26193   0.26957   0.28012   0.33892
     Eigenvalues ---    0.34133   0.34210   0.34244   0.34272   0.34296
     Eigenvalues ---    0.34312   0.34325   0.34364   0.34392   0.43909
     Eigenvalues --- 1000.000001000.000001000.000001000.000001000.00000
     Eigenvalues --- 1000.000001000.000001000.000001000.000001000.00000
     Eigenvalues --- 1000.000001000.000001000.000001000.000001000.00000
     Eigenvalues --- 1000.000001000.000001000.000001000.000001000.00000
     Eigenvalues --- 1000.000001000.000001000.000001000.000001000.00000
     Eigenvalues --- 1000.000001000.000001000.000001000.000001000.00000
     Eigenvalues --- 1000.000001000.000001000.000001000.000001000.00000
     Eigenvalues --- 1000.000001000.000001000.000001000.000001000.00000
     Eigenvalues --- 1000.000001000.000001000.000001000.000001000.00000
 RFO step:  Lambda=-4.78294080D-06 EMin= 3.23340686D-03
 Linear search not attempted -- first point.
 Iteration  1 RMS(Cart)=  0.00045935 RMS(Int)=  0.00000036
 Iteration  2 RMS(Cart)=  0.00000028 RMS(Int)=  0.00000006
 Iteration  1 RMS(Cart)=  0.00000000 RMS(Int)=  0.00000000
 Variable       Old X    -DE/DX   Delta X   Delta X   Delta X     New X
                                 (Linear)    (Quad)   (Total)
    R1        1.93264  -0.00028   0.00000  -0.00065  -0.00065   1.93199
    R2        2.77684   0.00007   0.00000   0.00021   0.00021   2.77705
    R3        2.77598   0.00035   0.00000   0.00101   0.00101   2.77700
    R4        2.06920  -0.00080   0.00000  -0.00234  -0.00234   2.06686
    R5        2.06977   0.00053   0.00000   0.00155   0.00155   2.07132
    R6        2.92032  -0.00004   0.00000  -0.00016  -0.00016   2.92016
    R7        2.06874  -0.00011   0.00000  -0.00034  -0.00034   2.06840
    R8        2.06673   0.00032   0.00000   0.00092   0.00092   2.06765
    R9        2.92414   0.00015   0.00000   0.00049   0.00049   2.92463
   R10        2.06784   0.00019   0.00000   0.00055   0.00055   2.06839
   R11        2.06833  -0.00024   0.00000  -0.00070  -0.00070   2.06763
   R12        2.92130  -0.00026   0.00000  -0.00093  -0.00093   2.92037
   R13        2.06721  -0.00011   0.00000  -0.00033  -0.00033   2.06688
   R14        2.07106   0.00009   0.00000   0.00026   0.00026   2.07132
    A1        1.88086   0.00002   0.00000   0.00013   0.00013   1.88099
    A2        1.88137  -0.00002   0.00000  -0.00015  -0.00015   1.88122
    A3        1.79287  -0.00003   0.00000  -0.00006  -0.00006   1.79281
    A4        1.93072   0.00001   0.00000   0.00031   0.00031   1.93103
    A5        1.87788   0.00001   0.00000  -0.00021  -0.00021   1.87767
    A6        1.86683  -0.00005   0.00000  -0.00032  -0.00032   1.86652
    A7        1.87807   0.00000   0.00000   0.00017   0.00017   1.87824
    A8        1.98333   0.00006   0.00000   0.00054   0.00054   1.98387
    A9        1.92473  -0.00005   0.00000  -0.00054  -0.00054   1.92420
   A10        1.92646  -0.00005   0.00000  -0.00026  -0.00026   1.92621
   A11        1.95561   0.00003   0.00000   0.00059   0.00059   1.95620
   A12        1.81501   0.00008   0.00000   0.00029   0.00029   1.81530
   A13        1.86977   0.00001   0.00000  -0.00017  -0.00017   1.86961
   A14        1.93270   0.00000   0.00000   0.00006   0.00006   1.93276
   A15        1.96534  -0.00007   0.00000  -0.00051  -0.00051   1.96483
   A16        1.93307  -0.00001   0.00000  -0.00022  -0.00022   1.93285
   A17        1.96494  -0.00000   0.00000   0.00001   0.00001   1.96495
   A18        1.81527  -0.00001   0.00000  -0.00007  -0.00007   1.81520
   A19        1.87003  -0.00003   0.00000  -0.00042  -0.00042   1.86962
   A20        1.92599   0.00001   0.00000   0.00013   0.00013   1.92612
   A21        1.95559   0.00004   0.00000   0.00059   0.00059   1.95618
   A22        1.86654   0.00003   0.00000   0.00018   0.00018   1.86673
   A23        1.93094   0.00001   0.00000   0.00033   0.00033   1.93127
   A24        1.87764   0.00001   0.00000   0.00011   0.00011   1.87775
   A25        1.98361  -0.00001   0.00000   0.00004   0.00004   1.98365
   A26        1.92455  -0.00006   0.00000  -0.00068  -0.00068   1.92388
   A27        1.87824   0.00001   0.00000   0.00001   0.00001   1.87825
    D1       -0.85065  -0.00002   0.00000  -0.00080  -0.00080  -0.85144
    D2       -2.89759  -0.00004   0.00000  -0.00105  -0.00105  -2.89864
    D3        1.31772   0.00004   0.00000  -0.00015  -0.00015   1.31757
    D4       -2.83442   0.00002   0.00000  -0.00065  -0.00065  -2.83506
    D5        1.40182  -0.00001   0.00000  -0.00090  -0.00090   1.40092
    D6       -0.66605   0.00007   0.00000   0.00000  -0.00000  -0.66605
    D7       -1.31775  -0.00002   0.00000  -0.00020  -0.00020  -1.31794
    D8        0.85091  -0.00000   0.00000   0.00018   0.00018   0.85109
    D9        2.89805   0.00003   0.00000   0.00044   0.00044   2.89849
   D10        0.66565  -0.00001   0.00000  -0.00014  -0.00014   0.66551
   D11        2.83431   0.00000   0.00000   0.00024   0.00024   2.83455
   D12       -1.40174   0.00003   0.00000   0.00050   0.00050  -1.40124
   D13       -1.66449  -0.00003   0.00000   0.00038   0.00038  -1.66412
   D14        2.53645  -0.00002   0.00000   0.00038   0.00038   2.53682
   D15        0.40902  -0.00001   0.00000   0.00049   0.00049   0.40951
   D16        0.47131  -0.00000   0.00000   0.00088   0.00088   0.47219
   D17       -1.61094   0.00000   0.00000   0.00088   0.00088  -1.61006
   D18        2.54483   0.00002   0.00000   0.00099   0.00099   2.54582
   D19        2.58157   0.00001   0.00000   0.00108   0.00108   2.58266
   D20        0.49932   0.00001   0.00000   0.00108   0.00108   0.50041
   D21       -1.62810   0.00003   0.00000   0.00119   0.00119  -1.62690
   D22       -2.06931   0.00001   0.00000  -0.00054  -0.00054  -2.06985
   D23        2.12056   0.00005   0.00000   0.00014   0.00014   2.12070
   D24       -0.00031   0.00001   0.00000  -0.00054  -0.00054  -0.00085
   D25       -0.00008  -0.00001   0.00000  -0.00064  -0.00064  -0.00072
   D26       -2.09339   0.00003   0.00000   0.00003   0.00003  -2.09335
   D27        2.06893  -0.00000   0.00000  -0.00064  -0.00064   2.06829
   D28        2.09292  -0.00005   0.00000  -0.00117  -0.00117   2.09176
   D29       -0.00039  -0.00000   0.00000  -0.00049  -0.00049  -0.00087
   D30       -2.12126  -0.00004   0.00000  -0.00116  -0.00116  -2.12242
   D31       -0.40859   0.00002   0.00000   0.00050   0.00050  -0.40808
   D32       -2.54465  -0.00001   0.00000  -0.00007  -0.00007  -2.54471
   D33        1.62799   0.00002   0.00000   0.00038   0.00038   1.62837
   D34        1.66527   0.00001   0.00000   0.00027   0.00027   1.66554
   D35       -0.47079  -0.00002   0.00000  -0.00030  -0.00030  -0.47109
   D36       -2.58134   0.00001   0.00000   0.00015   0.00015  -2.58119
   D37       -2.53568   0.00001   0.00000   0.00022   0.00022  -2.53546
   D38        1.61145  -0.00002   0.00000  -0.00035  -0.00035   1.61110
   D39       -0.49910   0.00001   0.00000   0.00010   0.00010  -0.49900
         Item               Value     Threshold  Converged?
 Maximum Force            0.000803     0.000450     NO 
 RMS     Force            0.000137     0.000300     YES
 Maximum Displacement     0.001309     0.001800     YES
 RMS     Displacement     0.000459     0.001200     YES
 Predicted change in Energy=-2.391413D-06
 GradGradGradGradGradGradGradGradGradGradGradGradGradGradGradGradGradGrad

                          Input orientation:                          
 ---------------------------------------------------------------------
 Center     Atomic      Atomic             Coordinates (Angstroms)
 Number     Number       Type             X           Y           Z
 ---------------------------------------------------------------------
      1          7           0        0.844336    0.456441    0.923503
      2          1           0        1.372312    0.495184    1.798130
      3          6           0        1.643204    1.125499   -0.112720
      4          1           0        1.999518    2.096710    0.242307
      5          1           0        0.986604    1.306760   -0.971464
      6          6           0        2.778850    0.153195   -0.503652
      7          1           0        3.688568    0.383966    0.059553
      8          1           0        3.031599    0.221816   -1.565999
      9          6           0        2.230519   -1.240101   -0.112146
     10          1           0        2.865935   -1.707591    0.646625
     11          1           0        2.184742   -1.927632   -0.962058
     12          6           0        0.830227   -0.941029    0.469219
     13          1           0        0.542227   -1.609250    1.285806
     14          1           0        0.068359   -1.026967   -0.314106
 ---------------------------------------------------------------------
                    Distance matrix (angstroms):
                    1          2          3          4          5
     1  N    0.000000
     2  H    1.022365   0.000000
     3  C    1.469553   2.030278   0.000000
     4  H    2.118715   2.319236   1.093734   0.000000
     5  H    2.081870   2.911714   1.096093   1.767273   0.000000
     6  C    2.423030   2.719101   1.545281   2.222850   2.182133
     7  H    2.973435   2.898286   2.182443   2.412422   3.035646
     8  H    3.322166   3.761028   2.203702   2.801855   2.390100
     9  C    2.423288   2.719722   2.437417   3.363525   2.961799
    10  H    2.974316   2.899844   3.177747   3.922608   3.903384
    11  H    3.322022   3.761479   3.215003   4.204775   3.449190
    12  C    1.469523   2.030411   2.295675   3.262911   2.674431
    13  H    2.118871   2.319517   3.262955   4.116640   3.714277
    14  H    2.081902   2.911834   2.674659   3.714340   2.592600
                    6          7          8          9         10
     6  C    0.000000
     7  H    1.094551   0.000000
     8  H    1.094153   1.760773   0.000000
     9  C    1.547649   2.189288   2.211926   0.000000
    10  H    2.189349   2.322928   2.940368   1.094547   0.000000
    11  H    2.212000   2.940862   2.387894   1.094142   1.760768
    12  C    2.437404   3.177035   3.215643   1.545395   2.182475
    13  H    3.363162   3.921233   4.205065   2.222807   2.412020
    14  H    2.962342   3.903366   3.450722   2.182006   3.035240
                   11         12         13         14
    11  H    0.000000
    12  C    2.203781   0.000000
    13  H    2.802163   1.093745   0.000000
    14  H    2.389585   1.096096   1.767293   0.000000
 Stoichiometry    C4H9N
 Framework group  C1[X(C4H9N)]
 Deg. of freedom    36
 Full point group                 C1      NOp   1
 Largest Abelian subgroup         C1      NOp   1
 Largest concise Abelian subgroup C1      NOp   1
                         Standard orientation:                         
 ---------------------------------------------------------------------
 Center     Atomic      Atomic             Coordinates (Angstroms)
 Number     Number       Type             X           Y           Z
 ---------------------------------------------------------------------
      1          7           0        0.002308   -1.268054   -0.216153
      2          1           0        0.002710   -1.307909   -1.237741
      3          6           0        1.148610   -0.448689    0.201246
      4          1           0        2.059743   -0.771098   -0.310754
      5          1           0        1.297028   -0.609589    1.275258
      6          6           0        0.772020    1.024928   -0.071747
      7          1           0        1.158760    1.342845   -1.045093
      8          1           0        1.191233    1.702338    0.678285
      9          6           0       -0.775627    1.022391   -0.071216
     10          1           0       -1.164166    1.339726   -1.044031
     11          1           0       -1.196656    1.697727    0.679652
     12          6           0       -1.147061   -0.452832    0.200813
     13          1           0       -2.056891   -0.777986   -0.311790
     14          1           0       -1.295567   -0.614467    1.274707
 ---------------------------------------------------------------------
 Rotational constants (GHZ):           6.8850511           6.6922060           3.9134910
 Standard basis: 6-31G(d) (6D, 7F)
 There are    93 symmetry adapted cartesian basis functions of A   symmetry.
 There are    93 symmetry adapted basis functions of A   symmetry.
    93 basis functions,   176 primitive gaussians,    93 cartesian basis functions
    20 alpha electrons       20 beta electrons
       nuclear repulsion energy       190.0095098442 Hartrees.
 NAtoms=   14 NActive=   14 NUniq=   14 SFac= 1.00D+00 NAtFMM=   60 NAOKFM=F Big=F
 Integral buffers will be    131072 words long.
 Raffenetti 1 integral format.
 Two-electron integral symmetry is turned on.
 One-electron integrals computed using PRISM.
 NBasis=    93 RedAO= T EigKep=  3.15D-03  NBF=    93
 NBsUse=    93 1.00D-06 EigRej= -1.00D+00 NBFU=    93
 Initial guess from the checkpoint file:  "PRLD.scan2.neg.chk"
 B after Tr=    -0.000000    0.000000   -0.000000
         Rot=    0.999989    0.000071   -0.000010   -0.004654 Ang=   0.53 deg.
 Keep R1 ints in memory in canonical form, NReq=10436318.
 Requested convergence on RMS density matrix=1.00D-08 within 128 cycles.
 Requested convergence on MAX density matrix=1.00D-06.
 Requested convergence on             energy=1.00D-06.
 No special actions if energy rises.
 SCF Done:  E(RHF) =  -211.143209170     A.U. after    7 cycles
            NFock=  7  Conv=0.52D-08     -V/T= 2.0015
 ExpMin= 1.61D-01 ExpMax= 4.17D+03 ExpMxC= 6.27D+02 IAcc=3 IRadAn=         5 AccDes= 0.00D+00
 HarFok:  IExCor=  205 AccDes= 0.00D+00 IRadAn=         5 IDoV=-2 UseB2=F ITyADJ=14
 ICtDFT= 12500011 ScaDFX=  1.000000  1.000000  1.000000  1.000000
 Range of M.O.s used for correlation:     6    93
 NBasis=    93 NAE=    20 NBE=    20 NFC=     5 NFV=     0
 NROrb=     88 NOA=    15 NOB=    15 NVA=    73 NVB=    73
 Fully direct method using O(ONN) memory.
 JobTyp=1 Pass  1:  I=   6 to  20 NPSUse=  1 ParTrn=F ParDer=F DoDerP=T.
 Spin components of T(2) and E(2):
     alpha-alpha T2 =       0.2790778623D-01 E2=     -0.8404974068D-01
     alpha-beta  T2 =       0.1679155356D+00 E2=     -0.5160427552D+00
     beta-beta   T2 =       0.2790778623D-01 E2=     -0.8404974068D-01
 ANorm=    0.1106223806D+01
 E2 =    -0.6841422365D+00 EUMP2 =    -0.21182735140671D+03
          IDoAtm=11111111111111
          Differentiating once with respect to electric field.
                with respect to dipole field.
          Differentiating once with respect to nuclear coordinates.
 Keep R1 ints in memory in canonical form, NReq=10438744.
          There are     1 degrees of freedom in the 1st order CPHF.  IDoFFX=0 NUNeed=     1.
 LinEq1:  Iter=  0 NonCon=     1 RMS=4.26D-03 Max=4.53D-02 NDo=     1
 AX will form     1 AO Fock derivatives at one time.
 LinEq1:  Iter=  1 NonCon=     1 RMS=1.43D-03 Max=1.40D-02 NDo=     1
 LinEq1:  Iter=  2 NonCon=     1 RMS=2.90D-04 Max=3.42D-03 NDo=     1
 LinEq1:  Iter=  3 NonCon=     1 RMS=5.59D-05 Max=4.10D-04 NDo=     1
 LinEq1:  Iter=  4 NonCon=     1 RMS=1.19D-05 Max=1.55D-04 NDo=     1
 LinEq1:  Iter=  5 NonCon=     1 RMS=4.50D-06 Max=4.00D-05 NDo=     1
 LinEq1:  Iter=  6 NonCon=     1 RMS=1.05D-06 Max=1.55D-05 NDo=     1
 LinEq1:  Iter=  7 NonCon=     1 RMS=1.92D-07 Max=1.83D-06 NDo=     1
 LinEq1:  Iter=  8 NonCon=     1 RMS=6.32D-08 Max=5.78D-07 NDo=     1
 LinEq1:  Iter=  9 NonCon=     1 RMS=1.37D-08 Max=1.25D-07 NDo=     1
 LinEq1:  Iter= 10 NonCon=     1 RMS=3.65D-09 Max=2.95D-08 NDo=     1
 LinEq1:  Iter= 11 NonCon=     1 RMS=6.11D-10 Max=7.95D-09 NDo=     1
 LinEq1:  Iter= 12 NonCon=     1 RMS=1.20D-10 Max=1.50D-09 NDo=     1
 LinEq1:  Iter= 13 NonCon=     0 RMS=1.90D-11 Max=1.76D-10 NDo=     1
 Linear equations converged to 1.000D-10 1.000D-09 after    13 iterations.
 End of Minotr F.D. properties file   721 does not exist.
 End of Minotr F.D. properties file   722 does not exist.
 End of Minotr F.D. properties file   788 does not exist.
 Calling FoFJK, ICntrl=  10002127 FMM=F ISym2X=0 I1Cent= 0 IOpClX= 0 NMat=1 NMatS=1 NMatT=0.
 ***** Axes restored to original set *****
 -------------------------------------------------------------------
 Center     Atomic                   Forces (Hartrees/Bohr)
 Number     Number              X              Y              Z
 -------------------------------------------------------------------
      1        7          -0.000105584    0.000046147   -0.000004354
      2        1           0.000010349   -0.000020238    0.000004423
      3        6           0.000086860   -0.000033231    0.000009318
      4        1          -0.000000108    0.000000642    0.000007725
      5        1          -0.000013258   -0.000017910    0.000002502
      6        6          -0.000035832    0.000048919   -0.000052624
      7        1           0.000011870   -0.000006838    0.000007071
      8        1           0.000014927   -0.000009267    0.000004322
      9        6          -0.000090479    0.000011184    0.000050638
     10        1           0.000033101    0.000001310   -0.000008303
     11        1           0.000012774    0.000007393   -0.000006418
     12        6           0.000104308   -0.000093835   -0.000039212
     13        1          -0.000011226    0.000030395    0.000012725
     14        1          -0.000017702    0.000035329    0.000012189
 -------------------------------------------------------------------
 Cartesian Forces:  Max     0.000105584 RMS     0.000039818

 GradGradGradGradGradGradGradGradGradGradGradGradGradGradGradGradGradGrad
 Berny optimization.
 Using GEDIIS/GDIIS optimizer.
 FormGI is forming the generalized inverse of G from B-inverse, IUseBI=4.
 Internal  Forces:  Max     0.000036106 RMS     0.000014017
 Search for a local minimum.
 Step number   2 out of a maximum of   90 on scan point     1 out of     7
 All quantities printed in internal units (Hartrees-Bohrs-Radians)
 Mixed Optimization -- En-DIIS/RFO-DIIS
 Swapping is turned off.
 Update second derivatives using D2CorX and points    1    2
 DE= -2.42D-06 DEPred=-2.39D-06 R= 1.01D+00
 TightC=F SS=  1.41D+00  RLast= 5.56D-03 DXNew= 5.0454D-01 1.6669D-02
 Trust test= 1.01D+00 RLast= 5.56D-03 DXMaxT set to 3.00D-01
 ITU=  1  0
     Eigenvalues ---    0.00322   0.01528   0.02308   0.02516   0.04337
     Eigenvalues ---    0.04391   0.04965   0.05350   0.05516   0.05687
     Eigenvalues ---    0.05863   0.06790   0.06894   0.08239   0.08769
     Eigenvalues ---    0.08927   0.09363   0.11006   0.11201   0.19167
     Eigenvalues ---    0.21168   0.26181   0.26957   0.27426   0.33883
     Eigenvalues ---    0.33999   0.34134   0.34223   0.34280   0.34294
     Eigenvalues ---    0.34320   0.34361   0.34377   0.35220   0.44064
     Eigenvalues --- 1000.000001000.000001000.000001000.000001000.00000
     Eigenvalues --- 1000.000001000.000001000.000001000.000001000.00000
     Eigenvalues --- 1000.000001000.000001000.000001000.000001000.00000
     Eigenvalues --- 1000.000001000.000001000.000001000.000001000.00000
     Eigenvalues --- 1000.000001000.000001000.000001000.000001000.00000
     Eigenvalues --- 1000.000001000.000001000.000001000.000001000.00000
     Eigenvalues --- 1000.000001000.000001000.000001000.000001000.00000
     Eigenvalues --- 1000.000001000.000001000.000001000.000001000.00000
     Eigenvalues --- 1000.000001000.000001000.000001000.000001000.00000
 En-DIIS/RFO-DIIS/Sim-DIIS IScMMF=       -3 using points:     2    1
 RFO step:  Lambda=-1.37585558D-07.
 DidBck=F Rises=F RFO-DIIS coefs:    1.16977   -0.16977
 Iteration  1 RMS(Cart)=  0.00018239 RMS(Int)=  0.00000003
 Iteration  2 RMS(Cart)=  0.00000003 RMS(Int)=  0.00000002
 Iteration  1 RMS(Cart)=  0.00000000 RMS(Int)=  0.00000000
 Variable       Old X    -DE/DX   Delta X   Delta X   Delta X     New X
                                 (Linear)    (Quad)   (Total)
    R1        1.93199   0.00001  -0.00011   0.00011   0.00000   1.93199
    R2        2.77705   0.00002   0.00004   0.00003   0.00007   2.77712
    R3        2.77700   0.00001   0.00017  -0.00011   0.00006   2.77705
    R4        2.06686   0.00000  -0.00040   0.00034  -0.00006   2.06680
    R5        2.07132   0.00000   0.00026  -0.00021   0.00005   2.07137
    R6        2.92016  -0.00003  -0.00003  -0.00013  -0.00015   2.92001
    R7        2.06840   0.00001  -0.00006   0.00008   0.00003   2.06843
    R8        2.06765  -0.00000   0.00016  -0.00013   0.00002   2.06767
    R9        2.92463   0.00001   0.00008  -0.00005   0.00004   2.92467
   R10        2.06839   0.00001   0.00009  -0.00004   0.00005   2.06845
   R11        2.06763  -0.00000  -0.00012   0.00010  -0.00002   2.06761
   R12        2.92037  -0.00004  -0.00016   0.00002  -0.00014   2.92024
   R13        2.06688  -0.00001  -0.00006   0.00003  -0.00003   2.06685
   R14        2.07132   0.00000   0.00004  -0.00003   0.00001   2.07133
    A1        1.88099   0.00000   0.00002  -0.00003  -0.00001   1.88098
    A2        1.88122  -0.00001  -0.00003  -0.00019  -0.00022   1.88100
    A3        1.79281  -0.00003  -0.00001  -0.00011  -0.00012   1.79269
    A4        1.93103  -0.00001   0.00005  -0.00009  -0.00003   1.93099
    A5        1.87767  -0.00002  -0.00003  -0.00018  -0.00021   1.87746
    A6        1.86652   0.00003  -0.00005   0.00020   0.00015   1.86667
    A7        1.87824   0.00001   0.00003   0.00007   0.00010   1.87833
    A8        1.98387  -0.00000   0.00009  -0.00005   0.00004   1.98391
    A9        1.92420  -0.00001  -0.00009   0.00003  -0.00006   1.92414
   A10        1.92621   0.00001  -0.00004   0.00008   0.00004   1.92625
   A11        1.95620   0.00002   0.00010   0.00012   0.00022   1.95642
   A12        1.81530  -0.00002   0.00005  -0.00017  -0.00012   1.81518
   A13        1.86961  -0.00001  -0.00003  -0.00001  -0.00004   1.86956
   A14        1.93276  -0.00000   0.00001  -0.00011  -0.00010   1.93267
   A15        1.96483   0.00000  -0.00009   0.00008  -0.00000   1.96483
   A16        1.93285  -0.00001  -0.00004  -0.00017  -0.00020   1.93265
   A17        1.96495  -0.00001   0.00000  -0.00017  -0.00017   1.96478
   A18        1.81520   0.00001  -0.00001   0.00010   0.00009   1.81529
   A19        1.86962  -0.00000  -0.00007   0.00000  -0.00007   1.86955
   A20        1.92612   0.00002   0.00002   0.00025   0.00027   1.92638
   A21        1.95618   0.00000   0.00010  -0.00001   0.00009   1.95627
   A22        1.86673   0.00002   0.00003   0.00001   0.00005   1.86677
   A23        1.93127  -0.00003   0.00006  -0.00031  -0.00026   1.93102
   A24        1.87775  -0.00003   0.00002  -0.00038  -0.00036   1.87739
   A25        1.98365   0.00002   0.00001   0.00022   0.00023   1.98388
   A26        1.92388   0.00001  -0.00011   0.00034   0.00023   1.92411
   A27        1.87825   0.00000   0.00000   0.00007   0.00008   1.87832
    D1       -0.85144  -0.00002  -0.00014  -0.00030  -0.00043  -0.85188
    D2       -2.89864  -0.00001  -0.00018  -0.00023  -0.00041  -2.89905
    D3        1.31757  -0.00000  -0.00002  -0.00028  -0.00031   1.31727
    D4       -2.83506   0.00001  -0.00011  -0.00002  -0.00013  -2.83519
    D5        1.40092   0.00001  -0.00015   0.00005  -0.00010   1.40082
    D6       -0.66605   0.00002  -0.00000   0.00000   0.00000  -0.66605
    D7       -1.31794  -0.00001  -0.00003   0.00005   0.00002  -1.31793
    D8        0.85109   0.00002   0.00003   0.00015   0.00018   0.85127
    D9        2.89849  -0.00001   0.00007  -0.00016  -0.00008   2.89840
   D10        0.66551  -0.00002  -0.00002  -0.00011  -0.00013   0.66537
   D11        2.83455   0.00000   0.00004  -0.00002   0.00002   2.83457
   D12       -1.40124  -0.00003   0.00009  -0.00032  -0.00024  -1.40148
   D13       -1.66412  -0.00000   0.00006   0.00020   0.00026  -1.66385
   D14        2.53682  -0.00001   0.00006   0.00008   0.00014   2.53696
   D15        0.40951  -0.00001   0.00008   0.00002   0.00010   0.40961
   D16        0.47219   0.00001   0.00015   0.00020   0.00035   0.47254
   D17       -1.61006  -0.00000   0.00015   0.00008   0.00023  -1.60983
   D18        2.54582  -0.00000   0.00017   0.00002   0.00019   2.54601
   D19        2.58266   0.00001   0.00018   0.00028   0.00046   2.58312
   D20        0.50041   0.00000   0.00018   0.00016   0.00034   0.50075
   D21       -1.62690   0.00000   0.00020   0.00010   0.00030  -1.62660
   D22       -2.06985  -0.00001  -0.00009  -0.00029  -0.00038  -2.07024
   D23        2.12070   0.00001   0.00002  -0.00006  -0.00004   2.12066
   D24       -0.00085   0.00001  -0.00009  -0.00003  -0.00012  -0.00096
   D25       -0.00072  -0.00001  -0.00011  -0.00034  -0.00045  -0.00117
   D26       -2.09335   0.00001   0.00001  -0.00011  -0.00011  -2.09346
   D27        2.06829   0.00001  -0.00011  -0.00007  -0.00018   2.06810
   D28        2.09176  -0.00002  -0.00020  -0.00037  -0.00057   2.09119
   D29       -0.00087   0.00000  -0.00008  -0.00014  -0.00023  -0.00110
   D30       -2.12242  -0.00000  -0.00020  -0.00011  -0.00030  -2.12272
   D31       -0.40808  -0.00000   0.00009   0.00003   0.00011  -0.40797
   D32       -2.54471   0.00001  -0.00001   0.00027   0.00025  -2.54446
   D33        1.62837  -0.00002   0.00006  -0.00023  -0.00017   1.62820
   D34        1.66554  -0.00001   0.00005   0.00001   0.00006   1.66559
   D35       -0.47109   0.00000  -0.00005   0.00025   0.00020  -0.47089
   D36       -2.58119  -0.00002   0.00003  -0.00025  -0.00023  -2.58141
   D37       -2.53546   0.00001   0.00004   0.00017   0.00021  -2.53525
   D38        1.61110   0.00002  -0.00006   0.00041   0.00035   1.61145
   D39       -0.49900  -0.00001   0.00002  -0.00009  -0.00007  -0.49907
         Item               Value     Threshold  Converged?
 Maximum Force            0.000038     0.000450     YES
 RMS     Force            0.000013     0.000300     YES
 Maximum Displacement     0.000697     0.001800     YES
 RMS     Displacement     0.000182     0.001200     YES
 Predicted change in Energy=-6.879107D-08
 Optimization completed.
    -- Stationary point found.
                           ----------------------------
                           !   Optimized Parameters   !
                           ! (Angstroms and Degrees)  !
 --------------------------                            --------------------------
 ! Name  Definition              Value          Derivative Info.                !
 --------------------------------------------------------------------------------
 ! R1    R(1,2)                  1.0224         -DE/DX =    0.0                 !
 ! R2    R(1,3)                  1.4696         -DE/DX =    0.0                 !
 ! R3    R(1,12)                 1.4695         -DE/DX =    0.0                 !
 ! R4    R(3,4)                  1.0937         -DE/DX =    0.0                 !
 ! R5    R(3,5)                  1.0961         -DE/DX =    0.0                 !
 ! R6    R(3,6)                  1.5453         -DE/DX =    0.0                 !
 ! R7    R(6,7)                  1.0946         -DE/DX =    0.0                 !
 ! R8    R(6,8)                  1.0942         -DE/DX =    0.0                 !
 ! R9    R(6,9)                  1.5476         -DE/DX =    0.0                 !
 ! R10   R(9,10)                 1.0945         -DE/DX =    0.0                 !
 ! R11   R(9,11)                 1.0941         -DE/DX =    0.0                 !
 ! R12   R(9,12)                 1.5454         -DE/DX =    0.0                 !
 ! R13   R(12,13)                1.0937         -DE/DX =    0.0                 !
 ! R14   R(12,14)                1.0961         -DE/DX =    0.0                 !
 ! A1    A(2,1,3)              107.7728         -DE/DX =    0.0                 !
 ! A2    A(2,1,12)             107.7859         -DE/DX =    0.0                 !
 ! A3    A(3,1,12)             102.7205         -DE/DX =    0.0                 !
 ! A4    A(1,3,4)              110.6396         -DE/DX =    0.0                 !
 ! A5    A(1,3,5)              107.5828         -DE/DX =    0.0                 !
 ! A6    A(1,3,6)              106.9435         -DE/DX =    0.0                 !
 ! A7    A(4,3,5)              107.615          -DE/DX =    0.0                 !
 ! A8    A(4,3,6)              113.6672         -DE/DX =    0.0                 !
 ! A9    A(5,3,6)              110.2483         -DE/DX =    0.0                 !
 ! A10   A(3,6,7)              110.3635         -DE/DX =    0.0                 !
 ! A11   A(3,6,8)              112.082          -DE/DX =    0.0                 !
 ! A12   A(3,6,9)              104.0093         -DE/DX =    0.0                 !
 ! A13   A(7,6,8)              107.1205         -DE/DX =    0.0                 !
 ! A14   A(7,6,9)              110.7391         -DE/DX =    0.0                 !
 ! A15   A(8,6,9)              112.5766         -DE/DX =    0.0                 !
 ! A16   A(6,9,10)             110.7441         -DE/DX =    0.0                 !
 ! A17   A(6,9,11)             112.5833         -DE/DX =    0.0                 !
 ! A18   A(6,9,12)             104.0031         -DE/DX =    0.0                 !
 ! A19   A(10,9,11)            107.1212         -DE/DX =    0.0                 !
 ! A20   A(10,9,12)            110.3583         -DE/DX =    0.0                 !
 ! A21   A(11,9,12)            112.0809         -DE/DX =    0.0                 !
 ! A22   A(1,12,9)             106.9556         -DE/DX =    0.0                 !
 ! A23   A(1,12,13)            110.6537         -DE/DX =    0.0                 !
 ! A24   A(1,12,14)            107.5872         -DE/DX =    0.0                 !
 ! A25   A(9,12,13)            113.6546         -DE/DX =    0.0                 !
 ! A26   A(9,12,14)            110.2302         -DE/DX =    0.0                 !
 ! A27   A(13,12,14)           107.6157         -DE/DX =    0.0                 !
 ! D1    D(2,1,3,4)            -48.7841         -DE/DX =    0.0                 !
 ! D2    D(2,1,3,5)           -166.0799         -DE/DX =    0.0                 !
 ! D3    D(2,1,3,6)             75.4914         -DE/DX =    0.0                 !
 ! D4    D(12,1,3,4)          -162.4372         -DE/DX =    0.0                 !
 ! D5    D(12,1,3,5)            80.267          -DE/DX =    0.0                 !
 ! D6    D(12,1,3,6)           -38.1617         -DE/DX =    0.0                 !
 ! D7    D(2,1,12,9)           -75.5127         -DE/DX =    0.0                 !
 ! D8    D(2,1,12,13)           48.7641         -DE/DX =    0.0                 !
 ! D9    D(2,1,12,14)          166.0711         -DE/DX =    0.0                 !
 ! D10   D(3,1,12,9)            38.1309         -DE/DX =    0.0                 !
 ! D11   D(3,1,12,13)          162.4077         -DE/DX =    0.0                 !
 ! D12   D(3,1,12,14)          -80.2853         -DE/DX =    0.0                 !
 ! D13   D(1,3,6,7)            -95.3468         -DE/DX =    0.0                 !
 ! D14   D(1,3,6,8)            145.3491         -DE/DX =    0.0                 !
 ! D15   D(1,3,6,9)             23.4632         -DE/DX =    0.0                 !
 ! D16   D(4,3,6,7)             27.0546         -DE/DX =    0.0                 !
 ! D17   D(4,3,6,8)            -92.2495         -DE/DX =    0.0                 !
 ! D18   D(4,3,6,9)            145.8646         -DE/DX =    0.0                 !
 ! D19   D(5,3,6,7)            147.9753         -DE/DX =    0.0                 !
 ! D20   D(5,3,6,8)             28.6712         -DE/DX =    0.0                 !
 ! D21   D(5,3,6,9)            -93.2148         -DE/DX =    0.0                 !
 ! D22   D(3,6,9,10)          -118.5938         -DE/DX =    0.0                 !
 ! D23   D(3,6,9,11)           121.5072         -DE/DX =    0.0                 !
 ! D24   D(3,6,9,12)            -0.0485         -DE/DX =    0.0                 !
 ! D25   D(7,6,9,10)            -0.0413         -DE/DX =    0.0                 !
 ! D26   D(7,6,9,11)          -119.9403         -DE/DX =    0.0                 !
 ! D27   D(7,6,9,12)           118.5041         -DE/DX =    0.0                 !
 ! D28   D(8,6,9,10)           119.8489         -DE/DX =    0.0                 !
 ! D29   D(8,6,9,11)            -0.0501         -DE/DX =    0.0                 !
 ! D30   D(8,6,9,12)          -121.6058         -DE/DX =    0.0                 !
 ! D31   D(6,9,12,1)           -23.3815         -DE/DX =    0.0                 !
 ! D32   D(6,9,12,13)         -145.8014         -DE/DX =    0.0                 !
 ! D33   D(6,9,12,14)           93.299          -DE/DX =    0.0                 !
 ! D34   D(10,9,12,1)           95.4283         -DE/DX =    0.0                 !
 ! D35   D(10,9,12,13)         -26.9915         -DE/DX =    0.0                 !
 ! D36   D(10,9,12,14)        -147.8912         -DE/DX =    0.0                 !
 ! D37   D(11,9,12,1)         -145.271          -DE/DX =    0.0                 !
 ! D38   D(11,9,12,13)          92.3091         -DE/DX =    0.0                 !
 ! D39   D(11,9,12,14)         -28.5906         -DE/DX =    0.0                 !
 --------------------------------------------------------------------------------
 Iteration  1 RMS(Cart)=  0.01112378 RMS(Int)=  0.02625185
 Iteration  2 RMS(Cart)=  0.00254876 RMS(Int)=  0.02606788
 Iteration  3 RMS(Cart)=  0.00056201 RMS(Int)=  0.02605220
 Iteration  4 RMS(Cart)=  0.00012470 RMS(Int)=  0.02604995
 Iteration  5 RMS(Cart)=  0.00002771 RMS(Int)=  0.02604951
 Iteration  6 RMS(Cart)=  0.00000616 RMS(Int)=  0.02604942
 Iteration  7 RMS(Cart)=  0.00000137 RMS(Int)=  0.02604939
 Iteration  8 RMS(Cart)=  0.00000030 RMS(Int)=  0.02604939
 Iteration  1 RMS(Cart)=  0.01141305 RMS(Int)=  0.02073504
 Iteration  2 RMS(Cart)=  0.00970078 RMS(Int)=  0.02222310
 Iteration  3 RMS(Cart)=  0.00774528 RMS(Int)=  0.02546544
 Iteration  4 RMS(Cart)=  0.00613976 RMS(Int)=  0.02889290
 Iteration  5 RMS(Cart)=  0.00484006 RMS(Int)=  0.03194758
 Iteration  6 RMS(Cart)=  0.00379913 RMS(Int)=  0.03449987
 Iteration  7 RMS(Cart)=  0.00297218 RMS(Int)=  0.03656906
 Iteration  8 RMS(Cart)=  0.00231929 RMS(Int)=  0.03821958
 Iteration  9 RMS(Cart)=  0.00180625 RMS(Int)=  0.03952354
 Iteration 10 RMS(Cart)=  0.00140455 RMS(Int)=  0.04054742
 Iteration 11 RMS(Cart)=  0.00109090 RMS(Int)=  0.04134809
 Iteration 12 RMS(Cart)=  0.00084652 RMS(Int)=  0.04197245
 Iteration 13 RMS(Cart)=  0.00065643 RMS(Int)=  0.04245832
 Iteration 14 RMS(Cart)=  0.00050874 RMS(Int)=  0.04283587
 Iteration 15 RMS(Cart)=  0.00039412 RMS(Int)=  0.04312894
 Iteration 16 RMS(Cart)=  0.00030522 RMS(Int)=  0.04335624
 Iteration 17 RMS(Cart)=  0.00023632 RMS(Int)=  0.04353242
 Iteration 18 RMS(Cart)=  0.00018293 RMS(Int)=  0.04366892
 Iteration 19 RMS(Cart)=  0.00014159 RMS(Int)=  0.04377463
 Iteration 20 RMS(Cart)=  0.00010957 RMS(Int)=  0.04385649
 Iteration 21 RMS(Cart)=  0.00008479 RMS(Int)=  0.04391985
 Iteration 22 RMS(Cart)=  0.00006561 RMS(Int)=  0.04396890
 Iteration 23 RMS(Cart)=  0.00005076 RMS(Int)=  0.04400685
 Iteration 24 RMS(Cart)=  0.00003927 RMS(Int)=  0.04403622
 Iteration 25 RMS(Cart)=  0.00003039 RMS(Int)=  0.04405895
 Iteration 26 RMS(Cart)=  0.00002351 RMS(Int)=  0.04407653
 Iteration 27 RMS(Cart)=  0.00001819 RMS(Int)=  0.04409014
 Iteration 28 RMS(Cart)=  0.00001407 RMS(Int)=  0.04410067
 Iteration 29 RMS(Cart)=  0.00001088 RMS(Int)=  0.04410881
 Iteration 30 RMS(Cart)=  0.00000842 RMS(Int)=  0.04411511
 Iteration 31 RMS(Cart)=  0.00000651 RMS(Int)=  0.04411998
 Iteration 32 RMS(Cart)=  0.00000504 RMS(Int)=  0.04412375
 Iteration 33 RMS(Cart)=  0.00000390 RMS(Int)=  0.04412667
 Iteration 34 RMS(Cart)=  0.00000302 RMS(Int)=  0.04412893
 Iteration 35 RMS(Cart)=  0.00000233 RMS(Int)=  0.04413067
 Iteration 36 RMS(Cart)=  0.00000180 RMS(Int)=  0.04413202
 Iteration 37 RMS(Cart)=  0.00000140 RMS(Int)=  0.04413307
 Iteration 38 RMS(Cart)=  0.00000108 RMS(Int)=  0.04413388
 Iteration 39 RMS(Cart)=  0.00000084 RMS(Int)=  0.04413450
 GradGradGradGradGradGradGradGradGradGradGradGradGradGradGradGradGradGrad

                          Input orientation:                          
 ---------------------------------------------------------------------
 Center     Atomic      Atomic             Coordinates (Angstroms)
 Number     Number       Type             X           Y           Z
 ---------------------------------------------------------------------
      1          7           0        0.943836    0.407143    0.946585
      2          1           0        1.513710    0.458578    1.793950
      3          6           0        1.620124    1.065081   -0.164412
      4          1           0        1.985180    2.037383    0.178468
      5          1           0        0.919892    1.248528   -0.987662
      6          6           0        2.822836    0.193747   -0.475851
      7          1           0        3.714858    0.477455    0.091701
      8          1           0        3.105686    0.236012   -1.532039
      9          6           0        2.217281   -1.210334   -0.104597
     10          1           0        2.805743   -1.697445    0.679481
     11          1           0        2.213684   -1.873378   -0.975053
     12          6           0        0.761905   -0.939363    0.458197
     13          1           0        0.488174   -1.635684    1.256044
     14          1           0       -0.045908   -0.980722   -0.281813
 ---------------------------------------------------------------------
                    Distance matrix (angstroms):
                    1          2          3          4          5
     1  N    0.000000
     2  H    1.022463   0.000000
     3  C    1.457587   2.052889   0.000000
     4  H    2.081366   2.307529   1.093711   0.000000
     5  H    2.109457   2.951950   1.096229   1.765500   0.000000
     6  C    2.366327   2.633619   1.517477   2.128097   2.235108
     7  H    2.900747   2.782636   2.190619   2.330813   3.093770
     8  H    3.293396   3.694066   2.182809   2.725125   2.469662
     9  C    2.311466   2.623883   2.353229   3.268281   2.917023
    10  H    2.822646   2.749514   3.122403   3.856589   3.874862
    11  H    3.241293   3.687189   3.105478   4.083733   3.379401
    12  C    1.443849   2.074533   2.267593   3.230429   2.627229
    13  H    2.115783   2.393116   3.254710   4.110185   3.679575
    14  H    2.101124   2.968634   2.640976   3.666898   2.529931
                    6          7          8          9         10
     6  C    0.000000
     7  H    1.094673   0.000000
     8  H    1.094222   1.750976   0.000000
     9  C    1.573521   2.264928   2.217830   0.000000
    10  H    2.216234   2.429438   2.952803   1.094689   0.000000
    11  H    2.212074   2.986286   2.356995   1.094228   1.766061
    12  C    2.530578   3.295698   3.291786   1.583756   2.191102
    13  H    3.434666   4.028963   4.257702   2.241000   2.389009
    14  H    3.105918   4.050822   3.602229   2.281700   3.093492
                   11         12         13         14
    11  H    0.000000
    12  C    2.243714   0.000000
    13  H    2.830491   1.093778   0.000000
    14  H    2.526494   1.096306   1.754771   0.000000
 Stoichiometry    C4H9N
 Framework group  C1[X(C4H9N)]
 Deg. of freedom    36
 Full point group                 C1      NOp   1
 Largest Abelian subgroup         C1      NOp   1
 Largest concise Abelian subgroup C1      NOp   1
                         Standard orientation:                         
 ---------------------------------------------------------------------
 Center     Atomic      Atomic             Coordinates (Angstroms)
 Number     Number       Type             X           Y           Z
 ---------------------------------------------------------------------
      1          7           0       -0.553359   -1.047553   -0.307941
      2          1           0       -0.501475   -1.052738   -1.329074
      3          6           0        0.775126   -0.887770    0.270122
      4          1           0        1.456498   -1.582642   -0.228967
      5          1           0        0.765323   -1.145271    1.335634
      6          6           0        1.200606    0.525056   -0.084312
      7          1           0        1.729562    0.585080   -1.040823
      8          1           0        1.871057    0.958422    0.664027
      9          6           0       -0.208703    1.224463   -0.058876
     10          1           0       -0.439375    1.679474   -1.027431
     11          1           0       -0.233867    2.018539    0.693548
     12          6           0       -1.272351    0.085742    0.224407
     13          1           0       -2.217064    0.259558   -0.298716
     14          1           0       -1.525210   -0.072499    1.279352
 ---------------------------------------------------------------------
 Rotational constants (GHZ):           7.1697751           6.5187466           4.0353391
 Standard basis: 6-31G(d) (6D, 7F)
 There are    93 symmetry adapted cartesian basis functions of A   symmetry.
 There are    93 symmetry adapted basis functions of A   symmetry.
    93 basis functions,   176 primitive gaussians,    93 cartesian basis functions
    20 alpha electrons       20 beta electrons
       nuclear repulsion energy       190.9149543637 Hartrees.
 NAtoms=   14 NActive=   14 NUniq=   14 SFac= 1.00D+00 NAtFMM=   60 NAOKFM=F Big=F
 Integral buffers will be    131072 words long.
 Raffenetti 1 integral format.
 Two-electron integral symmetry is turned on.
 One-electron integrals computed using PRISM.
 NBasis=    93 RedAO= T EigKep=  3.18D-03  NBF=    93
 NBsUse=    93 1.00D-06 EigRej= -1.00D+00 NBFU=    93
 Initial guess from the checkpoint file:  "PRLD.scan2.neg.chk"
 B after Tr=     0.000000   -0.000000   -0.000000
         Rot=    0.971075   -0.009725    0.009286    0.238396 Ang= -27.63 deg.
 Keep R1 ints in memory in canonical form, NReq=10436285.
 Requested convergence on RMS density matrix=1.00D-08 within 128 cycles.
 Requested convergence on MAX density matrix=1.00D-06.
 Requested convergence on             energy=1.00D-06.
 No special actions if energy rises.
 SCF Done:  E(RHF) =  -211.129688740     A.U. after   11 cycles
            NFock= 11  Conv=0.81D-08     -V/T= 2.0014
 ExpMin= 1.61D-01 ExpMax= 4.17D+03 ExpMxC= 6.27D+02 IAcc=3 IRadAn=         5 AccDes= 0.00D+00
 HarFok:  IExCor=  205 AccDes= 0.00D+00 IRadAn=         5 IDoV=-2 UseB2=F ITyADJ=14
 ICtDFT= 12500011 ScaDFX=  1.000000  1.000000  1.000000  1.000000
 Range of M.O.s used for correlation:     6    93
 NBasis=    93 NAE=    20 NBE=    20 NFC=     5 NFV=     0
 NROrb=     88 NOA=    15 NOB=    15 NVA=    73 NVB=    73
 Fully direct method using O(ONN) memory.
 JobTyp=1 Pass  1:  I=   6 to  20 NPSUse=  1 ParTrn=F ParDer=F DoDerP=T.
 Spin components of T(2) and E(2):
     alpha-alpha T2 =       0.2792397027D-01 E2=     -0.8420214313D-01
     alpha-beta  T2 =       0.1678999759D+00 E2=     -0.5162130028D+00
     beta-beta   T2 =       0.2792397027D-01 E2=     -0.8420214313D-01
 ANorm=    0.1106231403D+01
 E2 =    -0.6846172891D+00 EUMP2 =    -0.21181430602894D+03
          IDoAtm=11111111111111
          Differentiating once with respect to electric field.
                with respect to dipole field.
          Differentiating once with respect to nuclear coordinates.
 Keep R1 ints in memory in canonical form, NReq=10438890.
          There are     1 degrees of freedom in the 1st order CPHF.  IDoFFX=0 NUNeed=     1.
 LinEq1:  Iter=  0 NonCon=     1 RMS=4.25D-03 Max=4.05D-02 NDo=     1
 AX will form     1 AO Fock derivatives at one time.
 LinEq1:  Iter=  1 NonCon=     1 RMS=1.43D-03 Max=1.29D-02 NDo=     1
 LinEq1:  Iter=  2 NonCon=     1 RMS=2.86D-04 Max=3.20D-03 NDo=     1
 LinEq1:  Iter=  3 NonCon=     1 RMS=5.48D-05 Max=3.60D-04 NDo=     1
 LinEq1:  Iter=  4 NonCon=     1 RMS=1.13D-05 Max=9.63D-05 NDo=     1
 LinEq1:  Iter=  5 NonCon=     1 RMS=4.03D-06 Max=4.79D-05 NDo=     1
 LinEq1:  Iter=  6 NonCon=     1 RMS=9.01D-07 Max=1.27D-05 NDo=     1
 LinEq1:  Iter=  7 NonCon=     1 RMS=2.98D-07 Max=3.26D-06 NDo=     1
 LinEq1:  Iter=  8 NonCon=     1 RMS=8.58D-08 Max=7.30D-07 NDo=     1
 LinEq1:  Iter=  9 NonCon=     1 RMS=1.47D-08 Max=1.13D-07 NDo=     1
 LinEq1:  Iter= 10 NonCon=     1 RMS=4.48D-09 Max=3.29D-08 NDo=     1
 LinEq1:  Iter= 11 NonCon=     1 RMS=1.03D-09 Max=7.16D-09 NDo=     1
 LinEq1:  Iter= 12 NonCon=     1 RMS=2.44D-10 Max=3.07D-09 NDo=     1
 LinEq1:  Iter= 13 NonCon=     0 RMS=5.42D-11 Max=3.47D-10 NDo=     1
 Linear equations converged to 1.000D-10 1.000D-09 after    13 iterations.
 End of Minotr F.D. properties file   721 does not exist.
 End of Minotr F.D. properties file   722 does not exist.
 End of Minotr F.D. properties file   788 does not exist.
 Calling FoFJK, ICntrl=  10002127 FMM=F ISym2X=0 I1Cent= 0 IOpClX= 0 NMat=1 NMatS=1 NMatT=0.
 ***** Axes restored to original set *****
 -------------------------------------------------------------------
 Center     Atomic                   Forces (Hartrees/Bohr)
 Number     Number              X              Y              Z
 -------------------------------------------------------------------
      1        7          -0.035204636    0.024485434    0.001961358
      2        1           0.000138354   -0.005459019   -0.005389905
      3        6           0.015756295    0.028541022    0.025412440
      4        1          -0.006548923    0.006291705   -0.001583911
      5        1           0.002186508   -0.007229257   -0.000430542
      6        6          -0.016375736   -0.025432186   -0.015831105
      7        1          -0.004469772   -0.002450726    0.005019611
      8        1           0.000897323   -0.001339192   -0.001044044
      9        6          -0.001322784   -0.011750721   -0.010168154
     10        1          -0.000214551   -0.000704658   -0.000394862
     11        1           0.001828067   -0.002617107   -0.000063081
     12        6           0.036426631   -0.006348315    0.004734416
     13        1           0.001719830    0.000381211    0.001231505
     14        1           0.005183394    0.003631809   -0.003453725
 -------------------------------------------------------------------
 Cartesian Forces:  Max     0.036426631 RMS     0.012605049

 GradGradGradGradGradGradGradGradGradGradGradGradGradGradGradGradGradGrad
 Berny optimization.
 FormGI is forming the generalized inverse of G from B-inverse, IUseBI=4.
 Internal  Forces:  Max     0.024297427 RMS     0.006979288
 Search for a local minimum.
 Step number   1 out of a maximum of   90 on scan point     2 out of     7
 All quantities printed in internal units (Hartrees-Bohrs-Radians)
 Mixed Optimization -- RFO/linear search
 Second derivative matrix not updated -- first step.
 ITU=  0
     Eigenvalues ---    0.00337   0.01575   0.02225   0.02508   0.04070
     Eigenvalues ---    0.04870   0.04962   0.05392   0.05425   0.05737
     Eigenvalues ---    0.05771   0.06185   0.07187   0.08059   0.08295
     Eigenvalues ---    0.08593   0.08991   0.10658   0.11029   0.18229
     Eigenvalues ---    0.19996   0.25990   0.26744   0.27416   0.33265
     Eigenvalues ---    0.33888   0.34132   0.34175   0.34230   0.34292
     Eigenvalues ---    0.34300   0.34359   0.34377   0.35210   0.44066
     Eigenvalues --- 1000.000001000.000001000.000001000.000001000.00000
     Eigenvalues --- 1000.000001000.000001000.000001000.000001000.00000
     Eigenvalues --- 1000.000001000.000001000.000001000.000001000.00000
     Eigenvalues --- 1000.000001000.000001000.000001000.000001000.00000
     Eigenvalues --- 1000.000001000.000001000.000001000.000001000.00000
     Eigenvalues --- 1000.000001000.000001000.000001000.000001000.00000
     Eigenvalues --- 1000.000001000.000001000.000001000.000001000.00000
     Eigenvalues --- 1000.000001000.000001000.000001000.000001000.00000
     Eigenvalues --- 1000.000001000.000001000.000001000.000001000.00000
 RFO step:  Lambda=-1.24316550D-02 EMin= 3.37169795D-03
 Linear search not attempted -- first point.
 Iteration  1 RMS(Cart)=  0.05493948 RMS(Int)=  0.00197076
 Iteration  2 RMS(Cart)=  0.00196868 RMS(Int)=  0.00070026
 Iteration  3 RMS(Cart)=  0.00000238 RMS(Int)=  0.00070026
 Iteration  4 RMS(Cart)=  0.00000000 RMS(Int)=  0.00070026
 Iteration  1 RMS(Cart)=  0.00008536 RMS(Int)=  0.00013428
 Iteration  2 RMS(Cart)=  0.00006682 RMS(Int)=  0.00014525
 Iteration  3 RMS(Cart)=  0.00005231 RMS(Int)=  0.00016666
 Iteration  4 RMS(Cart)=  0.00004094 RMS(Int)=  0.00018875
 Iteration  5 RMS(Cart)=  0.00003204 RMS(Int)=  0.00020827
[...]
           A27        107.61574 107.95970 108.80758 109.85449 111.31166
           D1         -48.78411 -62.55967 -76.29842 -91.08774-106.67440
           D2        -166.07986 178.66284 163.81456 148.29172 132.34387
           D3          75.49140  60.11579  44.53848  28.49641  12.21031
           D4        -162.43723-175.83652 171.00188 157.25463 142.95407
           D5          80.26702  65.38599  51.11486  36.63409  21.97234
           D6         -38.16172 -53.16106 -68.16122 -83.16122 -98.16122
           D7         -75.51267 -71.93279 -62.51875 -56.07548 -52.18512
           D8          48.76411  50.92150  56.49137  57.80643  57.00373
           D9         166.07113 169.07921 177.67707-176.52564-171.93146
           D10         38.13090  40.74666  49.75765  55.99050  59.61252
           D11        162.40767 163.60095 168.76777 169.87241 168.80137
           D12        -80.28530 -78.24133 -70.04653 -64.45966 -60.13382
           D13        -95.34680 -73.94539 -64.38516 -57.69026 -51.75606
           D14        145.34912 164.69888 170.56738 171.75857 170.60299
           D15         23.46315  43.51263  53.25639  59.80780  64.05223
           D16         27.05461  46.65530  54.07017  58.50503  62.18941
           D17        -92.24947 -74.70043 -70.97729 -72.04614 -75.45154
           D18        145.86456 164.11332 171.71172 176.00309 177.99769
           D19        147.97526 169.89594 178.71992-176.53659-173.23932
           D20         28.67118  48.54021  53.67246  52.91224  49.11973
           D21        -93.21479 -72.64604 -63.63853 -59.03852 -57.43103
           D22       -118.59384-137.36352-140.18005-140.52925-139.03217
           D23        121.50717 102.83535 100.25594  99.95662 100.56170
           D24         -0.04850 -17.15891 -20.89890 -23.35827 -25.14692
           D25         -0.04127 -21.52485 -24.74980 -24.93329 -23.80681
           D26       -119.94026-141.32599-144.31381-144.44743-144.21293
           D27        118.50407  98.67976  94.53135  92.23768  90.07844
           D28        119.84886  99.95128  98.46806 100.03904 102.90094
           D29         -0.05013 -19.84985 -21.09595 -19.47509 -17.50519
           D30       -121.60580-139.84411-142.25079-142.78999-143.21382
           D31        -23.38153 -14.01329 -17.36633 -20.45977 -22.97571
           D32       -145.80137-135.46366-136.61106-137.32061-138.48214
           D33         93.29895 102.76843  99.62134  96.83323  93.74894
           D34         95.42830 106.58641 103.60024 100.25603  96.60068
           D35        -26.99155 -14.86396 -15.64449 -16.60481 -18.90575
           D36       -147.89122-136.63187-139.41210-142.45097-146.67467
           D37       -145.27104-133.65920-136.51160-139.41526-141.22814
           D38         92.30911 104.89043 104.24367 103.72391 103.26544
           D39        -28.59056 -16.87748 -19.52394 -22.12225 -24.50348
                           6         7
     Eigenvalues --    -0.77182  -0.77750
           R1           1.03729   1.03769
           R2           1.61097   1.60849
           R3           1.46612   1.49026
           R4           1.08989   1.09195
           R5           1.09355   1.09232
           R6           1.51959   1.52090
           R7           1.08848   1.08831
           R8           1.08980   1.08996
           R9           4.92263   4.91978
           R10          1.09518   1.09468
           R11          1.09155   1.09063
           R12          1.56951   1.55609
           R13          1.10179   1.09946
           R14          1.09494   1.09253
           A1         104.42643 104.91757
           A2         107.12896 107.20447
           A3         120.87398 116.69003
           A4         105.54224 107.11975
           A5         106.35272 105.59341
           A6         112.30398 110.20762
           A7         108.53600 108.43157
           A8         111.10200 112.53071
           A9         112.62436 112.58405
           A10        111.93308 110.44620
           A11        111.12025 110.41469
           A12         36.61875  35.83490
           A13        105.45376 104.56381
           A14         87.82754  87.30305
           A15         93.21241  91.52762
           A16         94.43264  92.19318
           A17         86.14276  86.33036
           A18         32.02860  34.56036
           A19        107.37720 106.57131
           A20        108.65127 109.28066
           A21        108.13064 108.91209
           A22        101.23268 101.65648
           A23        113.35442 112.98173
           A24        110.25422 109.23276
           A25        110.99237 111.35548
           A26        112.56603 112.81879
           A27        108.39686 108.71683
           D1           5.10067  -9.34734
           D2        -110.08056-124.77900
           D3         126.29893 113.37828
           D4         125.63946 109.11197
           D5          10.45823  -6.31969
           D6        -113.16228-128.16240
           D7         -26.08116 -28.31168
           D8          92.83885  91.11887
           D9        -145.44227-147.74197
           D10       -145.29042-145.52401
           D11        -26.37041 -26.09347
           D12         95.34846  95.04569
           D13         61.32749  58.78336
           D14        -56.28423 -56.37409
           D15          8.94105   5.79893
           D16        179.27990 178.27471
           D17         61.66819  63.11726
           D18        126.89347 125.29029
           D19        -58.71535 -58.81858
           D20       -176.32707-173.97603
           D21       -111.10179-111.80300
           D22        -27.75258 -46.38836
           D23       -134.91075-152.86042
           D24         90.99233  75.40817
           D25       -160.41673-177.88468
           D26         92.42511  75.64326
           D27        -41.67182 -56.08815
           D28         94.21972  77.60407
           D29        -12.93845 -28.86799
           D30       -147.03537-160.59940
           D31         -3.40278  -1.44060
           D32       -124.00640-122.01868
           D33        114.29063 115.41228
           D34         63.90633  62.68696
           D35        -56.69729 -57.89112
           D36       -178.40026 179.53983
           D37        -52.33841 -53.36901
           D38       -172.94203-173.94709
           D39         65.35500  63.48387
 GradGradGradGradGradGradGradGradGradGradGradGradGradGradGradGradGradGrad

                          Input orientation:                          
 ---------------------------------------------------------------------
 Center     Atomic      Atomic             Coordinates (Angstroms)
 Number     Number       Type             X           Y           Z
 ---------------------------------------------------------------------
      1          7           0        2.097924   -0.320711    0.169969
      2          1           0        2.271960   -0.493382    1.178285
      3          6           0        1.784614    1.253636    0.067514
      4          1           0        1.682325    1.628107    1.088136
      5          1           0        0.813340    1.328174   -0.426675
      6          6           0        2.888468    1.959821   -0.704465
      7          1           0        2.981086    1.540607   -1.704516
      8          1           0        3.856416    1.774559   -0.238893
      9          6           0        1.209071   -2.436072    0.730803
     10          1           0        1.046332   -2.086299    1.755255
     11          1           0        2.245535   -2.771311    0.677527
     12          6           0        1.011828   -1.248399   -0.255068
     13          1           0        0.008875   -0.808808   -0.156780
     14          1           0        1.169226   -1.532923   -1.298093
 ---------------------------------------------------------------------
                    Distance matrix (angstroms):
                    1          2          3          4          5
     1  N    0.000000
     2  H    1.037692   0.000000
     3  C    1.608486   2.126826   0.000000
     4  H    2.194003   2.203750   1.091954   0.000000
     5  H    2.173698   2.832231   1.092315   1.771933   0.000000
     6  C    2.567181   3.153258   1.520901   2.185917   2.186848
     7  H    2.785350   3.598682   2.157310   3.081127   2.525298
     8  H    2.765794   3.108448   2.158149   2.551299   3.081369
     9  C    2.362064   2.259207   3.792775   4.107214   3.958018
    10  H    2.595434   2.091038   3.814275   3.827054   4.058784
    11  H    2.506960   2.332470   4.096921   4.454289   4.480650
    12  C    1.490257   2.052433   2.638453   3.244696   2.589898
    13  H    2.170053   2.646402   2.730793   3.207617   2.299282
    14  H    2.118287   2.903293   3.163620   3.993679   3.011959
                    6          7          8          9         10
     6  C    0.000000
     7  H    1.088311   0.000000
     8  H    1.089955   1.723075   0.000000
     9  C    4.919781   4.988466   5.067362   0.000000
    10  H    5.080824   5.372870   5.174883   1.094681   0.000000
    11  H    4.970601   4.980744   4.909144   1.090634   1.751806
    12  C    3.743849   3.709101   4.150929   1.556090   2.178225
    13  H    4.032037   4.092588   4.635094   2.208226   2.522732
    14  H    3.937950   3.590906   4.391165   2.221190   3.105520
                   11         12         13         14
    11  H    0.000000
    12  C    2.170491   0.000000
    13  H    3.090329   1.099462   0.000000
    14  H    2.568097   1.092533   1.781390   0.000000
 Stoichiometry    C4H9N
 Framework group  C1[X(C4H9N)]
 Deg. of freedom    36
 Full point group                 C1      NOp   1
 Largest Abelian subgroup         C1      NOp   1
 Largest concise Abelian subgroup C1      NOp   1
                         Standard orientation:                         
 ---------------------------------------------------------------------
 Center     Atomic      Atomic             Coordinates (Angstroms)
 Number     Number       Type             X           Y           Z
 ---------------------------------------------------------------------
      1          7           0       -0.078423   -0.335539   -0.116576
      2          1           0       -0.405839   -1.125876    0.470766
      3          6           0        1.280134    0.165689    0.583654
      4          1           0        1.357998   -0.352327    1.541755
      5          1           0        1.134806    1.230760    0.777708
      6          6           0        2.470020   -0.105617   -0.323928
      7          1           0        2.343341    0.401262   -1.278625
      8          1           0        2.519400   -1.163929   -0.579936
      9          6           0       -2.437847   -0.271880   -0.024866
     10          1           0       -2.403678   -0.749068    0.959741
     11          1           0       -2.385570   -1.074465   -0.761484
     12          6           0       -1.194690    0.648821   -0.193048
     13          1           0       -1.150449    1.410388    0.598707
     14          1           0       -1.166759    1.149952   -1.163468
 ---------------------------------------------------------------------
 Rotational constants (GHZ):          15.8290249           2.2428504           2.2119422

 **********************************************************************

            Population analysis using the SCF density.

 **********************************************************************

 Orbital symmetries:
       Occupied  (A) (A) (A) (A) (A) (A) (A) (A) (A) (A) (A) (A)
                 (A) (A) (A) (A) (A) (A) (A) (A)
       Virtual   (A) (A) (A) (A) (A) (A) (A) (A) (A) (A) (A) (A)
                 (A) (A) (A) (A) (A) (A) (A) (A) (A) (A) (A) (A)
                 (A) (A) (A) (A) (A) (A) (A) (A) (A) (A) (A) (A)
                 (A) (A) (A) (A) (A) (A) (A) (A) (A) (A) (A) (A)
                 (A) (A) (A) (A) (A) (A) (A) (A) (A) (A) (A) (A)
                 (A) (A) (A) (A) (A) (A) (A) (A) (A) (A) (A) (A)
                 (A)
 The electronic state is 1-A.
 Alpha  occ. eigenvalues --  -15.55210 -11.26927 -11.26274 -11.26170 -11.25778
 Alpha  occ. eigenvalues --   -1.17429  -1.01659  -0.93164  -0.82671  -0.81167
 Alpha  occ. eigenvalues --   -0.64216  -0.62899  -0.57854  -0.55744  -0.54607
 Alpha  occ. eigenvalues --   -0.51361  -0.49774  -0.49103  -0.37496  -0.16766
 Alpha virt. eigenvalues --   -0.09922   0.22627   0.25555   0.26105   0.28175
 Alpha virt. eigenvalues --    0.30456   0.31958   0.32948   0.33316   0.35365
 Alpha virt. eigenvalues --    0.38523   0.41290   0.42747   0.44381   0.70438
 Alpha virt. eigenvalues --    0.71535   0.74144   0.75060   0.79750   0.81511
 Alpha virt. eigenvalues --    0.82212   0.85108   0.89701   0.91116   0.96464
 Alpha virt. eigenvalues --    0.96969   1.01393   1.02503   1.12026   1.13152
 Alpha virt. eigenvalues --    1.14482   1.15917   1.17463   1.19437   1.20569
 Alpha virt. eigenvalues --    1.22387   1.22513   1.25143   1.32107   1.37837
 Alpha virt. eigenvalues --    1.52213   1.66991   1.69091   1.73255   1.74965
 Alpha virt. eigenvalues --    1.88561   2.03802   2.04827   2.12329   2.16734
 Alpha virt. eigenvalues --    2.20866   2.24084   2.25978   2.27920   2.31840
 Alpha virt. eigenvalues --    2.35353   2.43611   2.51476   2.57505   2.63385
 Alpha virt. eigenvalues --    2.65283   2.66401   2.72959   2.75804   2.86943
 Alpha virt. eigenvalues --    2.92218   3.04977   3.13080   4.25796   4.53432
 Alpha virt. eigenvalues --    4.56025   4.80009   4.83222
          Condensed to atoms (all electrons):
               1          2          3          4          5          6
     1  N    7.213734   0.332074   0.266802  -0.035321  -0.037874  -0.078415
     2  H    0.332074   0.427151  -0.035310  -0.005117   0.003123   0.002616
     3  C    0.266802  -0.035310   4.928151   0.393253   0.392957   0.336103
     4  H   -0.035321  -0.005117   0.393253   0.549763  -0.027730  -0.042641
     5  H   -0.037874   0.003123   0.392957  -0.027730   0.541073  -0.039386
     6  C   -0.078415   0.002616   0.336103  -0.042641  -0.039386   5.399426
     7  H    0.002016  -0.000134  -0.046038   0.004262  -0.003507   0.375659
     8  H    0.000591   0.000141  -0.046228  -0.002874   0.004078   0.376571
     9  C   -0.103151  -0.015758   0.004681  -0.000611  -0.000291  -0.001932
    10  H   -0.002495   0.004875  -0.000168  -0.000055  -0.000042  -0.000039
    11  H    0.000403  -0.001266  -0.000041   0.000006  -0.000002  -0.000085
    12  C    0.263840  -0.047441  -0.032450   0.002052  -0.004133   0.002916
    13  H   -0.047212   0.000736  -0.006465   0.000774   0.003428  -0.000356
    14  H   -0.046191   0.004552   0.001424  -0.000144  -0.000222   0.000032
               7          8          9         10         11         12
     1  N    0.002016   0.000591  -0.103151  -0.002495   0.000403   0.263840
     2  H   -0.000134   0.000141  -0.015758   0.004875  -0.001266  -0.047441
     3  C   -0.046038  -0.046228   0.004681  -0.000168  -0.000041  -0.032450
     4  H    0.004262  -0.002874  -0.000611  -0.000055   0.000006   0.002052
     5  H   -0.003507   0.004078  -0.000291  -0.000042  -0.000002  -0.004133
     6  C    0.375659   0.376571  -0.001932  -0.000039  -0.000085   0.002916
     7  H    0.523946  -0.038898  -0.000077  -0.000001  -0.000001  -0.000016
     8  H   -0.038898   0.526253  -0.000071  -0.000002  -0.000004  -0.000038
     9  C   -0.000077  -0.000071   5.453717   0.375632   0.378407   0.347337
    10  H   -0.000001  -0.000002   0.375632   0.549558  -0.042501  -0.047267
    11  H   -0.000001  -0.000004   0.378407  -0.042501   0.521207  -0.046672
    12  C   -0.000016  -0.000038   0.347337  -0.047267  -0.046672   4.889471
    13  H    0.000051   0.000006  -0.032330  -0.004998   0.004411   0.390687
    14  H   -0.000125  -0.000014  -0.029797   0.003706  -0.004637   0.399421
              13         14
     1  N   -0.047212  -0.046191
     2  H    0.000736   0.004552
     3  C   -0.006465   0.001424
     4  H    0.000774  -0.000144
     5  H    0.003428  -0.000222
     6  C   -0.000356   0.000032
     7  H    0.000051  -0.000125
     8  H    0.000006  -0.000014
     9  C   -0.032330  -0.029797
    10  H   -0.004998   0.003706
    11  H    0.004411  -0.004637
    12  C    0.390687   0.399421
    13  H    0.582963  -0.042454
    14  H   -0.042454   0.536398
 Mulliken charges:
               1
     1  N   -0.728802
     2  H    0.329758
     3  C   -0.156674
     4  H    0.164383
     5  H    0.168528
     6  C   -0.330469
     7  H    0.182864
     8  H    0.180490
     9  C   -0.375755
    10  H    0.163797
    11  H    0.190774
    12  C   -0.117705
    13  H    0.150759
    14  H    0.178051
 Sum of Mulliken charges =  -0.00000
 Mulliken charges with hydrogens summed into heavy atoms:
               1
     1  N   -0.399044
     3  C    0.176238
     6  C    0.032885
     9  C   -0.021183
    12  C    0.211104
 Electronic spatial extent (au):  <R**2>=            595.1450
 Charge=             -0.0000 electrons
 Dipole moment (field-independent basis, Debye):
    X=             -0.0109    Y=             -0.1509    Z=              1.1184  Tot=              1.1286
 Quadrupole moment (field-independent basis, Debye-Ang):
   XX=            -40.8431   YY=            -31.4490   ZZ=            -32.6238
   XY=              0.5064   XZ=             -0.3652   YZ=             -1.3944
 Traceless Quadrupole moment (field-independent basis, Debye-Ang):
   XX=             -5.8711   YY=              3.5229   ZZ=              2.3482
   XY=              0.5064   XZ=             -0.3652   YZ=             -1.3944
 Octapole moment (field-independent basis, Debye-Ang**2):
  XXX=              2.1130  YYY=             -2.3213  ZZZ=              0.6806  XYY=             -0.7597
  XXY=             -4.3774  XXZ=             -0.6073  XZZ=              0.4811  YZZ=             -0.1605
  YYZ=              1.0029  XYZ=              0.4659
 Hexadecapole moment (field-independent basis, Debye-Ang**3):
 XXXX=           -814.9123 YYYY=            -91.5368 ZZZZ=            -83.8441 XXXY=             -0.6113
 XXXZ=             -2.6462 YYYX=              0.1175 YYYZ=             -0.4597 ZZZX=             -0.9231
 ZZZY=             -3.6007 XXYY=           -124.1372 XXZZ=           -122.5890 YYZZ=            -28.1757
 XXYZ=              0.6126 YYXZ=             -0.2595 ZZXY=              0.8580
 N-N= 1.688588686487D+02 E-N=-8.287141625871D+02  KE= 2.102517611561D+02
 1\1\GINC-C402-013\Scan\RMP2-FC\6-31G(d)\C4H9N1\TG455515\02-Apr-2021\0\
 \# opt=modredundant MP2/6-31g(d) Geom=PrintInputOrient\\PRLD Dihedral/
 Improper Scan\\0,1\N,2.0979241572,-0.3207109807,0.1699686115\H,2.27196
 0309,-0.4933821938,1.1782846139\C,1.7846142613,1.2536358839,0.06751374
 52\H,1.6823246235,1.628107429,1.088136373\H,0.8133397094,1.328173773,-
 0.4266747392\C,2.8884677255,1.9598212089,-0.7044648469\H,2.9810855105,
 1.5406074803,-1.7045158655\H,3.8564156781,1.7745587246,-0.2388928133\C
 ,1.2090710882,-2.4360717967,0.7308032579\H,1.0463324763,-2.0862986992,
 1.7552547087\H,2.2455351358,-2.7713112437,0.6775273634\C,1.0118283123,
 -1.2483987635,-0.2550682534\H,0.0088748879,-0.808807978,-0.1567796681\
 H,1.1692257243,-1.5329228139,-1.2980925231\\Version=ES64L-G16RevA.03\S
 tate=1-A\HF=-211.1432092,-211.1382092,-211.1161792,-211.0694906,-211.0
 003487,-210.7352443,-210.7350497\MP2=-211.8273514,-211.8235011,-211.80
 36119,-211.7612762,-211.6991854,-211.7718233,-211.7775004\RMSD=5.189e-
 09,8.212e-09,6.171e-09,7.042e-09,3.546e-09,6.047e-09,6.191e-09\PG=C01 
 [X(C4H9N1)]\\@


 A politician is a person who can make waves and then
 make you think he's the only one who can save the ship.
 -- Ivern Ball
 Job cpu time:       0 days  0 hours 51 minutes 34.7 seconds.
 Elapsed time:       0 days  0 hours 51 minutes  9.6 seconds.
 File lengths (MBytes):  RWF=     10 Int=      0 D2E=      0 Chk=      3 Scr=      1
 Normal termination of Gaussian 16 at Fri Apr  2 20:18:39 2021.
