 Entering Gaussian System, Link 0=g16
 Initial command:
 /home1/apps/gaussian/16rA.03/g16/l1.exe "/tmp/Gau-204383.inp" -scrdir="/tmp/"
 Entering Link 1 = /home1/apps/gaussian/16rA.03/g16/l1.exe PID=    204384.
  
 Copyright (c) 1988,1990,1992,1993,1995,1998,2003,2009,2016,
            Gaussian, Inc.  All Rights Reserved.
  
 This is part of the Gaussian(R) 16 program.  It is based on
 the Gaussian(R) 09 system (copyright 2009, Gaussian, Inc.),
 the Gaussian(R) 03 system (copyright 2003, Gaussian, Inc.),
 the Gaussian(R) 98 system (copyright 1998, Gaussian, Inc.),
 the Gaussian(R) 94 system (copyright 1995, Gaussian, Inc.),
 the Gaussian 92(TM) system (copyright 1992, Gaussian, Inc.),
 the Gaussian 90(TM) system (copyright 1990, Gaussian, Inc.),
 the Gaussian 88(TM) system (copyright 1988, Gaussian, Inc.),
 the Gaussian 86(TM) system (copyright 1986, Carnegie Mellon
 University), and the Gaussian 82(TM) system (copyright 1983,
 Carnegie Mellon University). Gaussian is a federally registered
 trademark of Gaussian, Inc.
  
 This software contains proprietary and confidential information,
 including trade secrets, belonging to Gaussian, Inc.
  
 This software is provided under written license and may be
 used, copied, transmitted, or stored only in accord with that
 written license.
  
 The following legend is applicable only to US Government
 contracts under FAR:
  
                    RESTRICTED RIGHTS LEGEND
  
 Use, reproduction and disclosure by the US Government is
 subject to restrictions as set forth in subparagraphs (a)
 and (c) of the Commercial Computer Software - Restricted
 Rights clause in FAR 52.227-19.
  
 Gaussian, Inc.
 340 Quinnipiac St., Bldg. 40, Wallingford CT 06492
  
  
 ---------------------------------------------------------------
 Warning -- This program may not be used in any manner that
 competes with the business of Gaussian, Inc. or will provide
 assistance to any competitor of Gaussian, Inc.  The licensee
 of this program is prohibited from giving any competitor of
 Gaussian, Inc. access to this program.  By using this program,
 the user acknowledges that Gaussian, Inc. is engaged in the
 business of creating and licensing software in the field of
 computational chemistry and represents and warrants to the
 licensee that it is not a competitor of Gaussian, Inc. and that
 it will not use this program in any manner prohibited above.
 ---------------------------------------------------------------
  

 Cite this work as:
 Gaussian 16, Revision A.03,
 M. J. Frisch, G. W. Trucks, H. B. Schlegel, G. E. Scuseria, 
 M. A. Robb, J. R. Cheeseman, G. Scalmani, V. Barone, 
 G. A. Petersson, H. Nakatsuji, X. Li, M. Caricato, A. V. Marenich, 
 J. Bloino, B. G. Janesko, R. Gomperts, B. Mennucci, H. P. Hratchian, 
 J. V. Ortiz, A. F. Izmaylov, J. L. Sonnenberg, D. Williams-Young, 
 F. Ding, F. Lipparini, F. Egidi, J. Goings, B. Peng, A. Petrone, 
 T. Henderson, D. Ranasinghe, V. G. Zakrzewski, J. Gao, N. Rega, 
 G. Zheng, W. Liang, M. Hada, M. Ehara, K. Toyota, R. Fukuda, 
 J. Hasegawa, M. Ishida, T. Nakajima, Y. Honda, O. Kitao, H. Nakai, 
 T. Vreven, K. Throssell, J. A. Montgomery, Jr., J. E. Peralta, 
 F. Ogliaro, M. J. Bearpark, J. J. Heyd, E. N. Brothers, K. N. Kudin, 
 V. N. Staroverov, T. A. Keith, R. Kobayashi, J. Normand, 
 K. Raghavachari, A. P. Rendell, J. C. Burant, S. S. Iyengar, 
 J. Tomasi, M. Cossi, J. M. Millam, M. Klene, C. Adamo, R. Cammi, 
 J. W. Ochterski, R. L. Martin, K. Morokuma, O. Farkas, 
 J. B. Foresman, and D. J. Fox, Gaussian, Inc., Wallingford CT, 2016.
 
 ******************************************
 Gaussian 16:  ES64L-G16RevA.03 25-Dec-2016
                 2-Apr-2021 
 ******************************************
 %chk=PRLD.scan3.pos.chk
 %nproc=1
 Will use up to    1 processors via shared memory.
 %mem=1GB
 -----------------------------------------------------
 # opt=modredundant MP2/6-31g(d) Geom=PrintInputOrient
 -----------------------------------------------------
 1/18=120,19=15,38=1/1,3;
 2/9=2110,12=2,17=6,18=5,40=1/2;
 3/5=1,6=6,7=1,11=9,25=1,30=1,71=1/1,2,3;
 4//1;
 5/5=2,38=5/2;
 8/6=4,10=2/1;
 9/15=2,16=-3/6;
 10/5=1/2;
 6/7=2,8=2,9=2,10=2/1;
 7/12=2/1,2,3,16;
 1/18=20,19=15/3(2);
 2/9=2110/2;
 99//99;
 2/9=2110/2;
 3/5=1,6=6,7=1,11=9,25=1,30=1,71=1/1,2,3;
 4/5=5,16=3,69=1/1;
 5/5=2,38=5/2;
 8/6=4,10=2/1;
 9/15=2,16=-3/6;
 10/5=1/2;
 7/12=2/1,2,3,16;
 1/18=20,19=15/3(-8);
 2/9=2110/2;
 6/7=2,8=2,9=2,10=2/1;
 99//99;
 ---------------------------
 PRLD Dihedral/Improper Scan
 ---------------------------
 Symbolic Z-matrix:
 Charge =  0 Multiplicity = 1
 N1                    0.844     0.456     0.923 
 H2                    1.372     0.495     1.798 
 C3                    1.643     1.125    -0.113 
 H4                    2.        2.097     0.243 
 H5                    0.987     1.307    -0.971 
 C6                    2.779     0.153    -0.504 
 H7                    3.689     0.384     0.059 
 H8                    3.031     0.222    -1.566 
 C9                    2.231    -1.24     -0.112 
 H10                   2.866    -1.707     0.647 
 H11                   2.185    -1.928    -0.962 
 C12                   0.83     -0.941     0.469 
 H13                   0.542    -1.609     1.286 
 H14                   0.068    -1.027    -0.314 
 
 The following ModRedundant input section has been read:
 D       3       1      12       9 S   6 15.000                                
 

 GradGradGradGradGradGradGradGradGradGradGradGradGradGradGradGradGradGrad
 Berny optimization.
 Initialization pass.
                           ----------------------------
                           !    Initial Parameters    !
                           ! (Angstroms and Degrees)  !
 --------------------------                            --------------------------
 ! Name  Definition              Value          Derivative Info.                !
 --------------------------------------------------------------------------------
 ! R1    R(1,2)                  1.0227         estimate D2E/DX2                !
 ! R2    R(1,3)                  1.4694         estimate D2E/DX2                !
 ! R3    R(1,12)                 1.469          estimate D2E/DX2                !
 ! R4    R(3,4)                  1.095          estimate D2E/DX2                !
 ! R5    R(3,5)                  1.0953         estimate D2E/DX2                !
 ! R6    R(3,6)                  1.5454         estimate D2E/DX2                !
 ! R7    R(6,7)                  1.0947         estimate D2E/DX2                !
 ! R8    R(6,8)                  1.0937         estimate D2E/DX2                !
 ! R9    R(6,9)                  1.5474         estimate D2E/DX2                !
 ! R10   R(9,10)                 1.0943         estimate D2E/DX2                !
 ! R11   R(9,11)                 1.0945         estimate D2E/DX2                !
 ! R12   R(9,12)                 1.5459         estimate D2E/DX2                !
 ! R13   R(12,13)                1.0939         estimate D2E/DX2                !
 ! R14   R(12,14)                1.096          estimate D2E/DX2                !
 ! A1    A(2,1,3)              107.7654         estimate D2E/DX2                !
 ! A2    A(2,1,12)             107.7946         estimate D2E/DX2                !
 ! A3    A(3,1,12)             102.7239         estimate D2E/DX2                !
 ! A4    A(1,3,4)              110.6221         estimate D2E/DX2                !
 ! A5    A(1,3,5)              107.5946         estimate D2E/DX2                !
 ! A6    A(1,3,6)              106.9617         estimate D2E/DX2                !
 ! A7    A(4,3,5)              107.6053         estimate D2E/DX2                !
 ! A8    A(4,3,6)              113.6363         estimate D2E/DX2                !
 ! A9    A(5,3,6)              110.279          estimate D2E/DX2                !
 ! A10   A(3,6,7)              110.3782         estimate D2E/DX2                !
 ! A11   A(3,6,8)              112.0481         estimate D2E/DX2                !
 ! A12   A(3,6,9)              103.9924         estimate D2E/DX2                !
 ! A13   A(7,6,8)              107.1301         estimate D2E/DX2                !
 ! A14   A(7,6,9)              110.7358         estimate D2E/DX2                !
 ! A15   A(8,6,9)              112.6059         estimate D2E/DX2                !
 ! A16   A(6,9,10)             110.7565         estimate D2E/DX2                !
 ! A17   A(6,9,11)             112.5829         estimate D2E/DX2                !
 ! A18   A(6,9,12)             104.0073         estimate D2E/DX2                !
 ! A19   A(10,9,11)            107.145          estimate D2E/DX2                !
 ! A20   A(10,9,12)            110.3511         estimate D2E/DX2                !
 ! A21   A(11,9,12)            112.0469         estimate D2E/DX2                !
 ! A22   A(1,12,9)             106.9451         estimate D2E/DX2                !
 ! A23   A(1,12,13)            110.635          estimate D2E/DX2                !
 ! A24   A(1,12,14)            107.581          estimate D2E/DX2                !
 ! A25   A(9,12,13)            113.6523         estimate D2E/DX2                !
 ! A26   A(9,12,14)            110.2689         estimate D2E/DX2                !
 ! A27   A(13,12,14)           107.615          estimate D2E/DX2                !
 ! D1    D(2,1,3,4)            -48.7385         estimate D2E/DX2                !
 ! D2    D(2,1,3,5)           -166.0198         estimate D2E/DX2                !
 ! D3    D(2,1,3,6)             75.4998         estimate D2E/DX2                !
 ! D4    D(12,1,3,4)          -162.4            estimate D2E/DX2                !
 ! D5    D(12,1,3,5)            80.3186         estimate D2E/DX2                !
 ! D6    D(12,1,3,6)           -38.1617         estimate D2E/DX2                !
 ! D7    D(2,1,12,9)           -75.5014         estimate D2E/DX2                !
 ! D8    D(2,1,12,13)           48.7538         estimate D2E/DX2                !
 ! D9    D(2,1,12,14)          166.0459         estimate D2E/DX2                !
 ! D10   D(3,1,12,9)            38.1387         Scan                            !
 ! D11   D(3,1,12,13)          162.3939         estimate D2E/DX2                !
 ! D12   D(3,1,12,14)          -80.314          estimate D2E/DX2                !
 ! D13   D(1,3,6,7)            -95.3684         estimate D2E/DX2                !
 ! D14   D(1,3,6,8)            145.3276         estimate D2E/DX2                !
 ! D15   D(1,3,6,9)             23.4354         estimate D2E/DX2                !
 ! D16   D(4,3,6,7)             27.004          estimate D2E/DX2                !
 ! D17   D(4,3,6,8)            -92.2999         estimate D2E/DX2                !
 ! D18   D(4,3,6,9)            145.8078         estimate D2E/DX2                !
 ! D19   D(5,3,6,7)            147.9132         estimate D2E/DX2                !
 ! D20   D(5,3,6,8)             28.6092         estimate D2E/DX2                !
 ! D21   D(5,3,6,9)            -93.2831         estimate D2E/DX2                !
 ! D22   D(3,6,9,10)          -118.5629         estimate D2E/DX2                !
 ! D23   D(3,6,9,11)           121.4993         estimate D2E/DX2                !
 ! D24   D(3,6,9,12)            -0.0176         estimate D2E/DX2                !
 ! D25   D(7,6,9,10)            -0.0044         estimate D2E/DX2                !
 ! D26   D(7,6,9,11)          -119.9421         estimate D2E/DX2                !
 ! D27   D(7,6,9,12)           118.541          estimate D2E/DX2                !
 ! D28   D(8,6,9,10)           119.9156         estimate D2E/DX2                !
 ! D29   D(8,6,9,11)            -0.0222         estimate D2E/DX2                !
 ! D30   D(8,6,9,12)          -121.5391         estimate D2E/DX2                !
 ! D31   D(6,9,12,1)           -23.4104         estimate D2E/DX2                !
 ! D32   D(6,9,12,13)         -145.7976         estimate D2E/DX2                !
 ! D33   D(6,9,12,14)           93.2771         estimate D2E/DX2                !
 ! D34   D(10,9,12,1)           95.4127         estimate D2E/DX2                !
 ! D35   D(10,9,12,13)         -26.9744         estimate D2E/DX2                !
 ! D36   D(10,9,12,14)        -147.8998         estimate D2E/DX2                !
 ! D37   D(11,9,12,1)         -145.2836         estimate D2E/DX2                !
 ! D38   D(11,9,12,13)          92.3293         estimate D2E/DX2                !
 ! D39   D(11,9,12,14)         -28.5961         estimate D2E/DX2                !
 --------------------------------------------------------------------------------
 Trust Radius=3.00D-01 FncErr=1.00D-07 GrdErr=1.00D-07 EigMax=2.50D+02 EigMin=1.00D-04
 Number of optimizations in scan=   7
 Number of steps in this run=     90 maximum allowed number of steps=    100.
 GradGradGradGradGradGradGradGradGradGradGradGradGradGradGradGradGradGrad

                          Input orientation:                          
 ---------------------------------------------------------------------
 Center     Atomic      Atomic             Coordinates (Angstroms)
 Number     Number       Type             X           Y           Z
 ---------------------------------------------------------------------
      1          7           0        0.844000    0.456000    0.923000
      2          1           0        1.372000    0.495000    1.798000
      3          6           0        1.643000    1.125000   -0.113000
      4          1           0        2.000000    2.097000    0.243000
      5          1           0        0.987000    1.307000   -0.971000
      6          6           0        2.779000    0.153000   -0.504000
      7          1           0        3.689000    0.384000    0.059000
      8          1           0        3.031000    0.222000   -1.566000
      9          6           0        2.231000   -1.240000   -0.112000
     10          1           0        2.866000   -1.707000    0.647000
     11          1           0        2.185000   -1.928000   -0.962000
     12          6           0        0.830000   -0.941000    0.469000
     13          1           0        0.542000   -1.609000    1.286000
     14          1           0        0.068000   -1.027000   -0.314000
 ---------------------------------------------------------------------
                    Distance matrix (angstroms):
                    1          2          3          4          5
     1  N    0.000000
     2  H    1.022707   0.000000
     3  C    1.469441   2.030335   0.000000
     4  H    2.119343   2.319227   1.094974   0.000000
     5  H    2.081318   2.911173   1.095274   1.767502   0.000000
     6  C    2.423296   2.719525   1.545368   2.223508   2.181987
     7  H    2.974173   2.899126   2.182838   2.412664   3.035397
     8  H    3.321573   3.760759   2.202989   2.801975   2.389390
     9  C    2.423099   2.719597   2.437000   3.363771   2.961862
    10  H    2.973757   2.899248   3.177035   3.922192   3.902917
    11  H    3.321891   3.761582   3.214868   4.205577   3.449712
    12  C    1.468986   2.030296   2.295223   3.263345   2.674276
    13  H    2.118301   2.319021   3.262539   4.116801   3.714180
    14  H    2.081258   2.911605   2.674347   3.715138   2.593023
                    6          7          8          9         10
     6  C    0.000000
     7  H    1.094728   0.000000
     8  H    1.093668   1.760634   0.000000
     9  C    1.547390   2.189151   2.211687   0.000000
    10  H    2.189057   2.322790   2.940346   1.094255   0.000000
    11  H    2.212049   2.941054   2.388102   1.094514   1.761103
    12  C    2.437656   3.177673   3.215306   1.545886   2.182598
    13  H    3.363467   3.921886   4.204948   2.223350   2.412240
    14  H    2.962773   3.904061   3.450634   2.182829   3.035577
                   11         12         13         14
    11  H    0.000000
    12  C    2.204077   0.000000
    13  H    2.802626   1.093918   0.000000
    14  H    2.390271   1.095960   1.767314   0.000000
 Stoichiometry    C4H9N
 Framework group  C1[X(C4H9N)]
 Deg. of freedom    36
 Full point group                 C1      NOp   1
 Largest Abelian subgroup         C1      NOp   1
 Largest concise Abelian subgroup C1      NOp   1
                         Standard orientation:                         
 ---------------------------------------------------------------------
 Center     Atomic      Atomic             Coordinates (Angstroms)
 Number     Number       Type             X           Y           Z
 ---------------------------------------------------------------------
      1          7           0       -0.009754   -1.267896   -0.216048
      2          1           0       -0.009609   -1.307741   -1.237979
      3          6           0        1.144047   -0.459296    0.201285
      4          1           0        2.052841   -0.790293   -0.312042
      5          1           0        1.291688   -0.622098    1.274281
      6          6           0        0.781546    1.017994   -0.071425
      7          1           0        1.171547    1.332796   -1.044681
      8          1           0        1.207027    1.690375    0.678894
      9          6           0       -0.765800    1.029688   -0.071443
     10          1           0       -1.151178    1.350244   -1.044131
     11          1           0       -1.181004    1.708768    0.679833
     12          6           0       -1.151114   -0.442432    0.200878
     13          1           0       -2.063843   -0.759288   -0.312137
     14          1           0       -1.301266   -0.603214    1.274532
 ---------------------------------------------------------------------
 Rotational constants (GHZ):           6.8866106           6.6914801           3.9136725
 Standard basis: 6-31G(d) (6D, 7F)
 There are    93 symmetry adapted cartesian basis functions of A   symmetry.
 There are    93 symmetry adapted basis functions of A   symmetry.
    93 basis functions,   176 primitive gaussians,    93 cartesian basis functions
    20 alpha electrons       20 beta electrons
       nuclear repulsion energy       190.0136865772 Hartrees.
 NAtoms=   14 NActive=   14 NUniq=   14 SFac= 1.00D+00 NAtFMM=   60 NAOKFM=F Big=F
 Integral buffers will be    131072 words long.
 Raffenetti 1 integral format.
 Two-electron integral symmetry is turned on.
 One-electron integrals computed using PRISM.
 NBasis=    93 RedAO= T EigKep=  3.15D-03  NBF=    93
 NBsUse=    93 1.00D-06 EigRej= -1.00D+00 NBFU=    93
 ExpMin= 1.61D-01 ExpMax= 4.17D+03 ExpMxC= 6.27D+02 IAcc=3 IRadAn=         5 AccDes= 0.00D+00
 Harris functional with IExCor=  205 and IRadAn=       5 diagonalized for initial guess.
 HarFok:  IExCor=  205 AccDes= 0.00D+00 IRadAn=         5 IDoV= 1 UseB2=F ITyADJ=14
 ICtDFT=  3500011 ScaDFX=  1.000000  1.000000  1.000000  1.000000
 FoFCou: FMM=F IPFlag=           0 FMFlag=      100000 FMFlg1=           0
         NFxFlg=           0 DoJE=T BraDBF=F KetDBF=T FulRan=T
         wScrn=  0.000000 ICntrl=       500 IOpCl=  0 I1Cent=   200000004 NGrid=           0
         NMat0=    1 NMatS0=      1 NMatT0=    0 NMatD0=    1 NMtDS0=    0 NMtDT0=    0
 Petite list used in FoFCou.
 Keep R1 ints in memory in canonical form, NReq=10436288.
 Requested convergence on RMS density matrix=1.00D-08 within 128 cycles.
 Requested convergence on MAX density matrix=1.00D-06.
 Requested convergence on             energy=1.00D-06.
 No special actions if energy rises.
 SCF Done:  E(RHF) =  -211.143200098     A.U. after   12 cycles
            NFock= 12  Conv=0.39D-08     -V/T= 2.0015
 ExpMin= 1.61D-01 ExpMax= 4.17D+03 ExpMxC= 6.27D+02 IAcc=3 IRadAn=         5 AccDes= 0.00D+00
 HarFok:  IExCor=  205 AccDes= 0.00D+00 IRadAn=         5 IDoV=-2 UseB2=F ITyADJ=14
 ICtDFT= 12500011 ScaDFX=  1.000000  1.000000  1.000000  1.000000
 Range of M.O.s used for correlation:     6    93
 NBasis=    93 NAE=    20 NBE=    20 NFC=     5 NFV=     0
 NROrb=     88 NOA=    15 NOB=    15 NVA=    73 NVB=    73
 Fully direct method using O(ONN) memory.
 JobTyp=1 Pass  1:  I=   6 to  20 NPSUse=  1 ParTrn=F ParDer=F DoDerP=T.
 Spin components of T(2) and E(2):
     alpha-alpha T2 =       0.2790801328D-01 E2=     -0.8405127363D-01
     alpha-beta  T2 =       0.1679168201D+00 E2=     -0.5160463410D+00
     beta-beta   T2 =       0.2790801328D-01 E2=     -0.8405127363D-01
 ANorm=    0.1106224591D+01
 E2 =    -0.6841488883D+00 EUMP2 =    -0.21182734898599D+03
          IDoAtm=11111111111111
          Differentiating once with respect to electric field.
                with respect to dipole field.
          Differentiating once with respect to nuclear coordinates.
 Keep R1 ints in memory in canonical form, NReq=10438744.
          There are     1 degrees of freedom in the 1st order CPHF.  IDoFFX=0 NUNeed=     1.
 LinEq1:  Iter=  0 NonCon=     1 RMS=4.26D-03 Max=4.54D-02 NDo=     1
 AX will form     1 AO Fock derivatives at one time.
 LinEq1:  Iter=  1 NonCon=     1 RMS=1.43D-03 Max=1.40D-02 NDo=     1
 LinEq1:  Iter=  2 NonCon=     1 RMS=2.90D-04 Max=3.43D-03 NDo=     1
 LinEq1:  Iter=  3 NonCon=     1 RMS=5.58D-05 Max=4.08D-04 NDo=     1
 LinEq1:  Iter=  4 NonCon=     1 RMS=1.18D-05 Max=1.55D-04 NDo=     1
 LinEq1:  Iter=  5 NonCon=     1 RMS=4.47D-06 Max=3.98D-05 NDo=     1
 LinEq1:  Iter=  6 NonCon=     1 RMS=1.05D-06 Max=1.56D-05 NDo=     1
 LinEq1:  Iter=  7 NonCon=     1 RMS=1.91D-07 Max=1.83D-06 NDo=     1
 LinEq1:  Iter=  8 NonCon=     1 RMS=6.29D-08 Max=5.75D-07 NDo=     1
 LinEq1:  Iter=  9 NonCon=     1 RMS=1.37D-08 Max=1.24D-07 NDo=     1
 LinEq1:  Iter= 10 NonCon=     1 RMS=3.65D-09 Max=2.96D-08 NDo=     1
 LinEq1:  Iter= 11 NonCon=     1 RMS=6.11D-10 Max=7.96D-09 NDo=     1
 LinEq1:  Iter= 12 NonCon=     1 RMS=1.20D-10 Max=1.50D-09 NDo=     1
 LinEq1:  Iter= 13 NonCon=     0 RMS=1.91D-11 Max=1.76D-10 NDo=     1
 Linear equations converged to 1.000D-10 1.000D-09 after    13 iterations.
 End of Minotr F.D. properties file   721 does not exist.
 End of Minotr F.D. properties file   722 does not exist.
 End of Minotr F.D. properties file   788 does not exist.

 **********************************************************************

            Population analysis using the SCF density.

 **********************************************************************

 Orbital symmetries:
       Occupied  (A) (A) (A) (A) (A) (A) (A) (A) (A) (A) (A) (A)
                 (A) (A) (A) (A) (A) (A) (A) (A)
       Virtual   (A) (A) (A) (A) (A) (A) (A) (A) (A) (A) (A) (A)
                 (A) (A) (A) (A) (A) (A) (A) (A) (A) (A) (A) (A)
                 (A) (A) (A) (A) (A) (A) (A) (A) (A) (A) (A) (A)
                 (A) (A) (A) (A) (A) (A) (A) (A) (A) (A) (A) (A)
                 (A) (A) (A) (A) (A) (A) (A) (A) (A) (A) (A) (A)
                 (A) (A) (A) (A) (A) (A) (A) (A) (A) (A) (A) (A)
                 (A)
 The electronic state is 1-A.
 Alpha  occ. eigenvalues --  -15.54076 -11.24200 -11.24195 -11.21855 -11.21799
 Alpha  occ. eigenvalues --   -1.21663  -1.01921  -0.96899  -0.81410  -0.78334
 Alpha  occ. eigenvalues --   -0.67516  -0.63699  -0.58968  -0.58396  -0.50622
 Alpha  occ. eigenvalues --   -0.49289  -0.47912  -0.47626  -0.45740  -0.37275
 Alpha virt. eigenvalues --    0.21279   0.24725   0.28660   0.29029   0.30117
 Alpha virt. eigenvalues --    0.32558   0.33858   0.33958   0.36392   0.37738
 Alpha virt. eigenvalues --    0.40785   0.41401   0.48517   0.52442   0.72779
 Alpha virt. eigenvalues --    0.76267   0.76616   0.79767   0.80365   0.83842
 Alpha virt. eigenvalues --    0.90478   0.92044   0.92595   0.94963   1.01860
 Alpha virt. eigenvalues --    1.02452   1.09480   1.10988   1.12808   1.13150
 Alpha virt. eigenvalues --    1.15438   1.17173   1.19496   1.20850   1.21106
 Alpha virt. eigenvalues --    1.23722   1.24020   1.24151   1.49539   1.52543
 Alpha virt. eigenvalues --    1.59180   1.59545   1.69288   1.90975   2.00838
 Alpha virt. eigenvalues --    2.08684   2.12260   2.13555   2.19833   2.22442
 Alpha virt. eigenvalues --    2.29045   2.31775   2.35028   2.42288   2.43267
 Alpha virt. eigenvalues --    2.43361   2.51046   2.57266   2.59218   2.71449
 Alpha virt. eigenvalues --    2.73627   2.81719   2.90009   2.95574   2.97825
 Alpha virt. eigenvalues --    2.98905   3.02819   3.24107   4.34967   4.60737
 Alpha virt. eigenvalues --    4.68019   4.86124   5.04389
          Condensed to atoms (all electrons):
               1          2          3          4          5          6
     1  N    7.058662   0.327541   0.294203  -0.033404  -0.047556  -0.084999
     2  H    0.327541   0.433304  -0.042392  -0.005379   0.005680  -0.000687
     3  C    0.294203  -0.042392   4.977886   0.403748   0.406065   0.333688
     4  H   -0.033404  -0.005379   0.403748   0.521240  -0.026325  -0.035555
     5  H   -0.047556   0.005680   0.406065  -0.026325   0.544869  -0.053864
     6  C   -0.084999  -0.000687   0.333688  -0.035555  -0.053864   5.205597
     7  H    0.002637   0.000959  -0.038300  -0.004204   0.003824   0.396024
     8  H    0.004386  -0.000026  -0.032387   0.001335  -0.002463   0.391464
     9  C   -0.085089  -0.000691  -0.061393   0.003840  -0.000390   0.321496
    10  H    0.002649   0.000958   0.003257  -0.000161  -0.000013  -0.038489
    11  H    0.004384  -0.000026   0.002984  -0.000064   0.000166  -0.033459
    12  C    0.294002  -0.042370  -0.094809   0.006117  -0.001884  -0.061284
    13  H   -0.033416  -0.005385   0.006123  -0.000114  -0.000171   0.003829
    14  H   -0.047622   0.005682  -0.001900  -0.000171   0.003456  -0.000382
               7          8          9         10         11         12
     1  N    0.002637   0.004386  -0.085089   0.002649   0.004384   0.294002
     2  H    0.000959  -0.000026  -0.000691   0.000958  -0.000026  -0.042370
     3  C   -0.038300  -0.032387  -0.061393   0.003257   0.002984  -0.094809
     4  H   -0.004204   0.001335   0.003840  -0.000161  -0.000064   0.006117
     5  H    0.003824  -0.002463  -0.000390  -0.000013   0.000166  -0.001884
     6  C    0.396024   0.391464   0.321496  -0.038489  -0.033459  -0.061284
     7  H    0.542616  -0.025836  -0.038527  -0.006280   0.002599   0.003251
     8  H   -0.025836   0.527014  -0.033400   0.002596  -0.003631   0.002974
     9  C   -0.038527  -0.033400   5.205831   0.395992   0.391377   0.333836
    10  H   -0.006280   0.002596   0.395992   0.542443  -0.025801  -0.038327
    11  H    0.002599  -0.003631   0.391377  -0.025801   0.527314  -0.032361
    12  C    0.003251   0.002974   0.333836  -0.038327  -0.032361   4.977646
    13  H   -0.000161  -0.000063  -0.035505  -0.004188   0.001332   0.403827
    14  H   -0.000013   0.000165  -0.053852   0.003822  -0.002460   0.406044
              13         14
     1  N   -0.033416  -0.047622
     2  H   -0.005385   0.005682
     3  C    0.006123  -0.001900
     4  H   -0.000114  -0.000171
     5  H   -0.000171   0.003456
     6  C    0.003829  -0.000382
     7  H   -0.000161  -0.000013
     8  H   -0.000063   0.000165
     9  C   -0.035505  -0.053852
    10  H   -0.004188   0.003822
    11  H    0.001332  -0.002460
    12  C    0.403827   0.406044
    13  H    0.520894  -0.026326
    14  H   -0.026326   0.545162
 Mulliken charges:
               1
     1  N   -0.656379
     2  H    0.322831
     3  C   -0.156772
     4  H    0.169095
     5  H    0.168606
     6  C   -0.343380
     7  H    0.161410
     8  H    0.167872
     9  C   -0.343527
    10  H    0.161542
    11  H    0.167645
    12  C   -0.156662
    13  H    0.169324
    14  H    0.168395
 Sum of Mulliken charges =  -0.00000
 Mulliken charges with hydrogens summed into heavy atoms:
               1
     1  N   -0.333548
     3  C    0.180929
     6  C   -0.014098
     9  C   -0.014340
    12  C    0.181057
 Electronic spatial extent (au):  <R**2>=            390.2955
 Charge=             -0.0000 electrons
 Dipole moment (field-independent basis, Debye):
    X=              0.0108    Y=              1.4000    Z=             -0.6708  Tot=              1.5525
 Quadrupole moment (field-independent basis, Debye-Ang):
   XX=            -31.4430   YY=            -37.4386   ZZ=            -30.3356
   XY=             -0.0423   XZ=              0.0141   YZ=              1.4414
 Traceless Quadrupole moment (field-independent basis, Debye-Ang):
   XX=              1.6294   YY=             -4.3662   ZZ=              2.7368
   XY=             -0.0423   XZ=              0.0141   YZ=              1.4414
 Octapole moment (field-independent basis, Debye-Ang**2):
  XXX=             -0.0557  YYY=              7.4680  ZZZ=             -2.5630  XYY=              0.0925
  XXY=             -2.2856  XXZ=             -1.0006  XZZ=             -0.0165  YZZ=             -2.3218
  YYZ=             -1.4684  XYZ=             -0.0024
 Hexadecapole moment (field-independent basis, Debye-Ang**3):
 XXXX=           -226.6934 YYYY=           -248.7377 ZZZZ=            -65.8087 XXXY=              0.0072
 XXXZ=              0.0625 YYYX=             -0.1840 YYYZ=              5.7507 ZZZX=              0.0341
 ZZZY=              3.2304 XXYY=            -75.0449 XXZZ=            -48.5104 YYZZ=            -45.1589
 XXYZ=              2.0821 YYXZ=              0.0159 ZZXY=              0.0194
 N-N= 1.900136865772D+02 E-N=-8.720763185249D+02  KE= 2.108304137868D+02
 Calling FoFJK, ICntrl=  10002127 FMM=F ISym2X=0 I1Cent= 0 IOpClX= 0 NMat=1 NMatS=1 NMatT=0.
 ***** Axes restored to original set *****
 -------------------------------------------------------------------
 Center     Atomic                   Forces (Hartrees/Bohr)
 Number     Number              X              Y              Z
 -------------------------------------------------------------------
      1        7           0.000067218    0.000324295    0.000355385
      2        1          -0.000147219   -0.000035560   -0.000241089
      3        6           0.000758105    0.000773310    0.000735129
      4        1          -0.000288273   -0.000698691   -0.000271797
      5        1          -0.000308412    0.000033250   -0.000433494
      6        6          -0.000098258    0.000152779    0.000315185
      7        1          -0.000099833   -0.000004959   -0.000060197
      8        1           0.000110722   -0.000045813   -0.000301852
      9        6          -0.000507108   -0.000177978   -0.000275408
     10        1           0.000133008   -0.000094664    0.000103544
     11        1           0.000074374    0.000132703    0.000198827
     12        6           0.000296758   -0.000382461    0.000076681
     13        1           0.000028013    0.000050298   -0.000099903
     14        1          -0.000019094   -0.000026509   -0.000101012
 -------------------------------------------------------------------
 Cartesian Forces:  Max     0.000773310 RMS     0.000306300

 GradGradGradGradGradGradGradGradGradGradGradGradGradGradGradGradGradGrad
 Berny optimization.
 FormGI is forming the generalized inverse of G from B-inverse, IUseBI=4.
 Internal  Forces:  Max     0.000802576 RMS     0.000137397
 Search for a local minimum.
 Step number   1 out of a maximum of   90 on scan point     1 out of     7
 All quantities printed in internal units (Hartrees-Bohrs-Radians)
 Mixed Optimization -- En-DIIS/RFO-DIIS
 Second derivative matrix not updated -- first step.
 ITU=  0
     Eigenvalues ---    0.00323   0.01552   0.02307   0.02520   0.04338
     Eigenvalues ---    0.04380   0.04969   0.05400   0.05525   0.05682
     Eigenvalues ---    0.05842   0.06889   0.06892   0.08231   0.08733
     Eigenvalues ---    0.08798   0.09329   0.11006   0.11213   0.19067
     Eigenvalues ---    0.21179   0.26196   0.26953   0.28012   0.33878
     Eigenvalues ---    0.34133   0.34210   0.34244   0.34272   0.34296
     Eigenvalues ---    0.34325   0.34326   0.34364   0.34392   0.43909
     Eigenvalues --- 1000.000001000.000001000.000001000.000001000.00000
     Eigenvalues --- 1000.000001000.000001000.000001000.000001000.00000
     Eigenvalues --- 1000.000001000.000001000.000001000.000001000.00000
     Eigenvalues --- 1000.000001000.000001000.000001000.000001000.00000
     Eigenvalues --- 1000.000001000.000001000.000001000.000001000.00000
     Eigenvalues --- 1000.000001000.000001000.000001000.000001000.00000
     Eigenvalues --- 1000.000001000.000001000.000001000.000001000.00000
     Eigenvalues --- 1000.000001000.000001000.000001000.000001000.00000
     Eigenvalues --- 1000.000001000.000001000.000001000.000001000.00000
 RFO step:  Lambda=-4.82753654D-06 EMin= 3.22961032D-03
 Linear search not attempted -- first point.
 Iteration  1 RMS(Cart)=  0.00041628 RMS(Int)=  0.00000023
 Iteration  2 RMS(Cart)=  0.00000020 RMS(Int)=  0.00000007
 Iteration  1 RMS(Cart)=  0.00000000 RMS(Int)=  0.00000000
 Variable       Old X    -DE/DX   Delta X   Delta X   Delta X     New X
                                 (Linear)    (Quad)   (Total)
    R1        1.93264  -0.00028   0.00000  -0.00065  -0.00065   1.93199
    R2        2.77684   0.00007   0.00000   0.00023   0.00023   2.77707
    R3        2.77598   0.00035   0.00000   0.00101   0.00101   2.77699
    R4        2.06920  -0.00080   0.00000  -0.00234  -0.00234   2.06686
    R5        2.06977   0.00053   0.00000   0.00155   0.00155   2.07132
    R6        2.92032  -0.00004   0.00000  -0.00010  -0.00010   2.92022
    R7        2.06874  -0.00011   0.00000  -0.00034  -0.00034   2.06840
    R8        2.06673   0.00032   0.00000   0.00092   0.00092   2.06765
    R9        2.92414   0.00015   0.00000   0.00048   0.00048   2.92462
   R10        2.06784   0.00019   0.00000   0.00055   0.00055   2.06839
   R11        2.06833  -0.00024   0.00000  -0.00070  -0.00070   2.06763
   R12        2.92130  -0.00026   0.00000  -0.00099  -0.00099   2.92031
   R13        2.06721  -0.00011   0.00000  -0.00033  -0.00033   2.06688
   R14        2.07106   0.00009   0.00000   0.00026   0.00026   2.07132
    A1        1.88086   0.00002   0.00000   0.00012   0.00012   1.88099
    A2        1.88137  -0.00002   0.00000  -0.00021  -0.00021   1.88116
    A3        1.79287  -0.00003   0.00000  -0.00001  -0.00001   1.79286
    A4        1.93072   0.00001   0.00000   0.00035   0.00035   1.93107
    A5        1.87788   0.00001   0.00000  -0.00029  -0.00029   1.87759
    A6        1.86683  -0.00005   0.00000  -0.00023  -0.00023   1.86660
    A7        1.87807   0.00000   0.00000   0.00015   0.00015   1.87822
    A8        1.98333   0.00006   0.00000   0.00059   0.00059   1.98391
    A9        1.92473  -0.00005   0.00000  -0.00062  -0.00062   1.92411
   A10        1.92646  -0.00005   0.00000  -0.00034  -0.00034   1.92613
   A11        1.95561   0.00003   0.00000   0.00063   0.00063   1.95624
   A12        1.81501   0.00008   0.00000   0.00041   0.00041   1.81542
   A13        1.86977   0.00001   0.00000  -0.00019  -0.00019   1.86958
   A14        1.93270   0.00000   0.00000  -0.00002  -0.00002   1.93268
   A15        1.96534  -0.00007   0.00000  -0.00048  -0.00048   1.96487
   A16        1.93307  -0.00001   0.00000  -0.00015  -0.00015   1.93291
   A17        1.96494  -0.00000   0.00000  -0.00003  -0.00003   1.96492
   A18        1.81527  -0.00001   0.00000  -0.00015  -0.00015   1.81512
   A19        1.87003  -0.00003   0.00000  -0.00040  -0.00040   1.86963
   A20        1.92599   0.00001   0.00000   0.00019   0.00019   1.92618
   A21        1.95559   0.00004   0.00000   0.00055   0.00055   1.95614
   A22        1.86654   0.00003   0.00000   0.00019   0.00019   1.86673
   A23        1.93094   0.00001   0.00000   0.00029   0.00029   1.93124
   A24        1.87764   0.00001   0.00000   0.00014   0.00014   1.87779
   A25        1.98361  -0.00001   0.00000   0.00002   0.00002   1.98362
   A26        1.92455  -0.00006   0.00000  -0.00065  -0.00065   1.92390
   A27        1.87824   0.00001   0.00000   0.00001   0.00001   1.87825
    D1       -0.85065  -0.00002   0.00000  -0.00044  -0.00044  -0.85109
    D2       -2.89759  -0.00004   0.00000  -0.00065  -0.00065  -2.89824
    D3        1.31772   0.00004   0.00000   0.00035   0.00035   1.31807
    D4       -2.83442   0.00002   0.00000  -0.00024  -0.00024  -2.83466
    D5        1.40182  -0.00001   0.00000  -0.00045  -0.00045   1.40138
    D6       -0.66605   0.00007   0.00000   0.00055   0.00055  -0.66550
    D7       -1.31775  -0.00002   0.00000  -0.00005  -0.00005  -1.31780
    D8        0.85091  -0.00000   0.00000   0.00027   0.00027   0.85119
    D9        2.89805   0.00003   0.00000   0.00054   0.00054   2.89858
   D10        0.66565  -0.00001   0.00000   0.00000  -0.00000   0.66565
   D11        2.83431   0.00000   0.00000   0.00032   0.00032   2.83463
   D12       -1.40174   0.00003   0.00000   0.00059   0.00059  -1.40116
   D13       -1.66449  -0.00003   0.00000  -0.00051  -0.00051  -1.66500
   D14        2.53645  -0.00002   0.00000  -0.00045  -0.00045   2.53599
   D15        0.40902  -0.00001   0.00000  -0.00047  -0.00047   0.40855
   D16        0.47131  -0.00000   0.00000   0.00014   0.00014   0.47145
   D17       -1.61094   0.00000   0.00000   0.00020   0.00020  -1.61074
   D18        2.54483   0.00002   0.00000   0.00018   0.00018   2.54501
   D19        2.58157   0.00001   0.00000   0.00029   0.00029   2.58186
   D20        0.49932   0.00001   0.00000   0.00035   0.00035   0.49967
   D21       -1.62810   0.00003   0.00000   0.00033   0.00033  -1.62777
   D22       -2.06931   0.00001   0.00000   0.00036   0.00036  -2.06895
   D23        2.12056   0.00005   0.00000   0.00099   0.00099   2.12156
   D24       -0.00031   0.00001   0.00000   0.00043   0.00043   0.00012
   D25       -0.00008  -0.00001   0.00000   0.00018   0.00018   0.00011
   D26       -2.09339   0.00003   0.00000   0.00082   0.00082  -2.09257
   D27        2.06893  -0.00000   0.00000   0.00025   0.00025   2.06918
   D28        2.09292  -0.00005   0.00000  -0.00040  -0.00040   2.09252
   D29       -0.00039  -0.00000   0.00000   0.00023   0.00023  -0.00015
   D30       -2.12126  -0.00004   0.00000  -0.00033  -0.00033  -2.12159
   D31       -0.40859   0.00002   0.00000  -0.00021  -0.00021  -0.40879
   D32       -2.54465  -0.00001   0.00000  -0.00072  -0.00072  -2.54536
   D33        1.62799   0.00002   0.00000  -0.00027  -0.00027   1.62772
   D34        1.66527   0.00001   0.00000  -0.00037  -0.00037   1.66489
   D35       -0.47079  -0.00002   0.00000  -0.00088  -0.00088  -0.47167
   D36       -2.58134   0.00001   0.00000  -0.00044  -0.00044  -2.58177
   D37       -2.53568   0.00001   0.00000  -0.00038  -0.00038  -2.53606
   D38        1.61145  -0.00002   0.00000  -0.00089  -0.00089   1.61056
   D39       -0.49910   0.00001   0.00000  -0.00045  -0.00045  -0.49954
         Item               Value     Threshold  Converged?
 Maximum Force            0.000803     0.000450     NO 
 RMS     Force            0.000138     0.000300     YES
 Maximum Displacement     0.001134     0.001800     YES
 RMS     Displacement     0.000416     0.001200     YES
 Predicted change in Energy=-2.413701D-06
 GradGradGradGradGradGradGradGradGradGradGradGradGradGradGradGradGradGrad

                          Input orientation:                          
 ---------------------------------------------------------------------
 Center     Atomic      Atomic             Coordinates (Angstroms)
 Number     Number       Type             X           Y           Z
 ---------------------------------------------------------------------
      1          7           0        0.844211    0.456372    0.923450
      2          1           0        1.372002    0.494969    1.798194
      3          6           0        1.643312    1.125600   -0.112497
      4          1           0        1.999880    2.096598    0.242856
      5          1           0        0.986726    1.307345   -0.971149
      6          6           0        2.778673    0.153129   -0.503963
      7          1           0        3.688705    0.383992    0.058696
      8          1           0        3.030854    0.221572   -1.566456
      9          6           0        2.230666   -1.240120   -0.111856
     10          1           0        2.866055   -1.707119    0.647241
     11          1           0        2.185177   -1.928042   -0.961467
     12          6           0        0.830209   -0.941051    0.469024
     13          1           0        0.541937   -1.609314    1.285480
     14          1           0        0.068592   -1.026931   -0.314551
 ---------------------------------------------------------------------
                    Distance matrix (angstroms):
                    1          2          3          4          5
     1  N    0.000000
     2  H    1.022365   0.000000
     3  C    1.469562   2.030282   0.000000
     4  H    2.118754   2.319164   1.093734   0.000000
     5  H    2.081819   2.911641   1.096093   1.767261   0.000000
     6  C    2.423140   2.719467   1.545312   2.222910   2.182099
     7  H    2.973917   2.899186   2.182412   2.412273   3.035433
     8  H    3.322073   3.761304   2.203755   2.802185   2.389928
     9  C    2.423262   2.719582   2.437543   3.363446   2.962322
    10  H    2.974027   2.899324   3.177514   3.921996   3.903595
    11  H    3.322128   3.761378   3.215447   4.205051   3.450233
    12  C    1.469521   2.030366   2.295724   3.262912   2.674674
    13  H    2.118843   2.319459   3.262993   4.116607   3.714446
    14  H    2.081927   2.911829   2.674688   3.714433   2.592862
                    6          7          8          9         10
     6  C    0.000000
     7  H    1.094551   0.000000
     8  H    1.094153   1.760757   0.000000
     9  C    1.547643   2.189224   2.211946   0.000000
    10  H    2.189389   2.322904   2.940656   1.094547   0.000000
    11  H    2.211971   2.940549   2.387890   1.094142   1.760779
    12  C    2.437302   3.177279   3.215231   1.545361   2.182496
    13  H    3.363227   3.921787   4.204806   2.222759   2.412144
    14  H    2.961918   3.903234   3.449786   2.181994   3.035374
                   11         12         13         14
    11  H    0.000000
    12  C    2.203723   0.000000
    13  H    2.801892   1.093745   0.000000
    14  H    2.389651   1.096096   1.767293   0.000000
 Stoichiometry    C4H9N
 Framework group  C1[X(C4H9N)]
 Deg. of freedom    36
 Full point group                 C1      NOp   1
 Largest Abelian subgroup         C1      NOp   1
 Largest concise Abelian subgroup C1      NOp   1
                         Standard orientation:                         
 ---------------------------------------------------------------------
 Center     Atomic      Atomic             Coordinates (Angstroms)
 Number     Number       Type             X           Y           Z
 ---------------------------------------------------------------------
      1          7           0        0.003701   -1.268089   -0.216054
      2          1           0        0.003889   -1.308074   -1.237637
      3          6           0        1.149225   -0.447418    0.200946
      4          1           0        2.060532   -0.768633   -0.311492
      5          1           0        1.298284   -0.608391    1.274859
      6          6           0        0.770788    1.025874   -0.071424
      7          1           0        1.157456    1.344709   -1.044498
      8          1           0        1.188913    1.703488    0.679032
      9          6           0       -0.776848    1.021465   -0.071522
     10          1           0       -1.165438    1.337958   -1.044592
     11          1           0       -1.198967    1.696549    0.678960
     12          6           0       -1.146490   -0.454080    0.201011
     13          1           0       -2.056057   -0.780420   -0.311304
     14          1           0       -1.294568   -0.615605    1.274980
 ---------------------------------------------------------------------
 Rotational constants (GHZ):           6.8850344           6.6921375           3.9133686
 Standard basis: 6-31G(d) (6D, 7F)
 There are    93 symmetry adapted cartesian basis functions of A   symmetry.
 There are    93 symmetry adapted basis functions of A   symmetry.
    93 basis functions,   176 primitive gaussians,    93 cartesian basis functions
    20 alpha electrons       20 beta electrons
       nuclear repulsion energy       190.0086466825 Hartrees.
 NAtoms=   14 NActive=   14 NUniq=   14 SFac= 1.00D+00 NAtFMM=   60 NAOKFM=F Big=F
 Integral buffers will be    131072 words long.
 Raffenetti 1 integral format.
 Two-electron integral symmetry is turned on.
 One-electron integrals computed using PRISM.
 NBasis=    93 RedAO= T EigKep=  3.15D-03  NBF=    93
 NBsUse=    93 1.00D-06 EigRej= -1.00D+00 NBFU=    93
 Initial guess from the checkpoint file:  "PRLD.scan3.pos.chk"
 B after Tr=    -0.000000    0.000000   -0.000000
         Rot=    0.999986    0.000075   -0.000027   -0.005233 Ang=   0.60 deg.
 Keep R1 ints in memory in canonical form, NReq=10436318.
 Requested convergence on RMS density matrix=1.00D-08 within 128 cycles.
 Requested convergence on MAX density matrix=1.00D-06.
 Requested convergence on             energy=1.00D-06.
 No special actions if energy rises.
 SCF Done:  E(RHF) =  -211.143209595     A.U. after    7 cycles
            NFock=  7  Conv=0.51D-08     -V/T= 2.0015
 ExpMin= 1.61D-01 ExpMax= 4.17D+03 ExpMxC= 6.27D+02 IAcc=3 IRadAn=         5 AccDes= 0.00D+00
 HarFok:  IExCor=  205 AccDes= 0.00D+00 IRadAn=         5 IDoV=-2 UseB2=F ITyADJ=14
 ICtDFT= 12500011 ScaDFX=  1.000000  1.000000  1.000000  1.000000
 Range of M.O.s used for correlation:     6    93
 NBasis=    93 NAE=    20 NBE=    20 NFC=     5 NFV=     0
 NROrb=     88 NOA=    15 NOB=    15 NVA=    73 NVB=    73
 Fully direct method using O(ONN) memory.
 JobTyp=1 Pass  1:  I=   6 to  20 NPSUse=  1 ParTrn=F ParDer=F DoDerP=T.
 Spin components of T(2) and E(2):
     alpha-alpha T2 =       0.2790774357D-01 E2=     -0.8404959942D-01
     alpha-beta  T2 =       0.1679155653D+00 E2=     -0.5160426212D+00
     beta-beta   T2 =       0.2790774357D-01 E2=     -0.8404959942D-01
 ANorm=    0.1106223780D+01
 E2 =    -0.6841418201D+00 EUMP2 =    -0.21182735141491D+03
          IDoAtm=11111111111111
          Differentiating once with respect to electric field.
                with respect to dipole field.
          Differentiating once with respect to nuclear coordinates.
 Keep R1 ints in memory in canonical form, NReq=10438744.
          There are     1 degrees of freedom in the 1st order CPHF.  IDoFFX=0 NUNeed=     1.
 LinEq1:  Iter=  0 NonCon=     1 RMS=4.26D-03 Max=4.53D-02 NDo=     1
 AX will form     1 AO Fock derivatives at one time.
 LinEq1:  Iter=  1 NonCon=     1 RMS=1.43D-03 Max=1.40D-02 NDo=     1
 LinEq1:  Iter=  2 NonCon=     1 RMS=2.90D-04 Max=3.42D-03 NDo=     1
 LinEq1:  Iter=  3 NonCon=     1 RMS=5.59D-05 Max=4.10D-04 NDo=     1
 LinEq1:  Iter=  4 NonCon=     1 RMS=1.19D-05 Max=1.55D-04 NDo=     1
 LinEq1:  Iter=  5 NonCon=     1 RMS=4.50D-06 Max=4.00D-05 NDo=     1
 LinEq1:  Iter=  6 NonCon=     1 RMS=1.05D-06 Max=1.55D-05 NDo=     1
 LinEq1:  Iter=  7 NonCon=     1 RMS=1.92D-07 Max=1.83D-06 NDo=     1
 LinEq1:  Iter=  8 NonCon=     1 RMS=6.32D-08 Max=5.78D-07 NDo=     1
 LinEq1:  Iter=  9 NonCon=     1 RMS=1.37D-08 Max=1.25D-07 NDo=     1
 LinEq1:  Iter= 10 NonCon=     1 RMS=3.65D-09 Max=2.95D-08 NDo=     1
 LinEq1:  Iter= 11 NonCon=     1 RMS=6.11D-10 Max=7.96D-09 NDo=     1
 LinEq1:  Iter= 12 NonCon=     1 RMS=1.20D-10 Max=1.50D-09 NDo=     1
 LinEq1:  Iter= 13 NonCon=     0 RMS=1.90D-11 Max=1.76D-10 NDo=     1
 Linear equations converged to 1.000D-10 1.000D-09 after    13 iterations.
 End of Minotr F.D. properties file   721 does not exist.
 End of Minotr F.D. properties file   722 does not exist.
 End of Minotr F.D. properties file   788 does not exist.
 Calling FoFJK, ICntrl=  10002127 FMM=F ISym2X=0 I1Cent= 0 IOpClX= 0 NMat=1 NMatS=1 NMatT=0.
 ***** Axes restored to original set *****
 -------------------------------------------------------------------
 Center     Atomic                   Forces (Hartrees/Bohr)
 Number     Number              X              Y              Z
 -------------------------------------------------------------------
      1        7          -0.000085116    0.000044441    0.000007795
      2        1           0.000008884   -0.000019233    0.000006585
      3        6           0.000054262   -0.000051072   -0.000029601
      4        1           0.000002175   -0.000004999    0.000011323
      5        1          -0.000012522   -0.000009945    0.000001465
      6        6           0.000004154    0.000059956   -0.000010564
      7        1           0.000020312   -0.000009228   -0.000001066
      8        1           0.000005193   -0.000008908    0.000005292
      9        6          -0.000114829    0.000023593    0.000016828
     10        1           0.000028801    0.000008431   -0.000002783
     11        1           0.000017670    0.000002113   -0.000004729
     12        6           0.000101890   -0.000101555   -0.000021971
     13        1          -0.000015392    0.000029041    0.000012697
     14        1          -0.000015482    0.000037364    0.000008729
 -------------------------------------------------------------------
 Cartesian Forces:  Max     0.000114829 RMS     0.000037915

 GradGradGradGradGradGradGradGradGradGradGradGradGradGradGradGradGradGrad
 Berny optimization.
 Using GEDIIS/GDIIS optimizer.
 FormGI is forming the generalized inverse of G from B-inverse, IUseBI=4.
 Internal  Forces:  Max     0.000038316 RMS     0.000014250
 Search for a local minimum.
 Step number   2 out of a maximum of   90 on scan point     1 out of     7
 All quantities printed in internal units (Hartrees-Bohrs-Radians)
 Mixed Optimization -- En-DIIS/RFO-DIIS
 Swapping is turned off.
 Update second derivatives using D2CorX and points    1    2
 DE= -2.43D-06 DEPred=-2.41D-06 R= 1.01D+00
 TightC=F SS=  1.41D+00  RLast= 4.91D-03 DXNew= 5.0454D-01 1.4735D-02
 Trust test= 1.01D+00 RLast= 4.91D-03 DXMaxT set to 3.00D-01
 ITU=  1  0
     Eigenvalues ---    0.00323   0.01536   0.02307   0.02520   0.04336
     Eigenvalues ---    0.04391   0.04969   0.05352   0.05524   0.05711
     Eigenvalues ---    0.05845   0.06790   0.06894   0.08244   0.08780
     Eigenvalues ---    0.08906   0.09363   0.10993   0.11213   0.19338
     Eigenvalues ---    0.21101   0.26006   0.26949   0.27453   0.33756
     Eigenvalues ---    0.34056   0.34135   0.34223   0.34290   0.34295
     Eigenvalues ---    0.34325   0.34362   0.34370   0.35105   0.44064
     Eigenvalues --- 1000.000001000.000001000.000001000.000001000.00000
     Eigenvalues --- 1000.000001000.000001000.000001000.000001000.00000
     Eigenvalues --- 1000.000001000.000001000.000001000.000001000.00000
     Eigenvalues --- 1000.000001000.000001000.000001000.000001000.00000
     Eigenvalues --- 1000.000001000.000001000.000001000.000001000.00000
     Eigenvalues --- 1000.000001000.000001000.000001000.000001000.00000
     Eigenvalues --- 1000.000001000.000001000.000001000.000001000.00000
     Eigenvalues --- 1000.000001000.000001000.000001000.000001000.00000
     Eigenvalues --- 1000.000001000.000001000.000001000.000001000.00000
 En-DIIS/RFO-DIIS/Sim-DIIS IScMMF=       -3 using points:     2    1
 RFO step:  Lambda=-1.32199462D-07.
 DidBck=F Rises=F RFO-DIIS coefs:    1.10395   -0.10395
 Iteration  1 RMS(Cart)=  0.00016216 RMS(Int)=  0.00000003
 Iteration  2 RMS(Cart)=  0.00000002 RMS(Int)=  0.00000002
 Iteration  1 RMS(Cart)=  0.00000000 RMS(Int)=  0.00000000
 Variable       Old X    -DE/DX   Delta X   Delta X   Delta X     New X
                                 (Linear)    (Quad)   (Total)
    R1        1.93199   0.00001  -0.00007   0.00007   0.00000   1.93199
    R2        2.77707   0.00002   0.00002   0.00006   0.00008   2.77715
    R3        2.77699   0.00000   0.00010  -0.00006   0.00004   2.77703
    R4        2.06686  -0.00000  -0.00024   0.00018  -0.00006   2.06679
    R5        2.07132   0.00000   0.00016  -0.00010   0.00006   2.07137
    R6        2.92022  -0.00003  -0.00001  -0.00011  -0.00012   2.92010
    R7        2.06840   0.00001  -0.00003   0.00007   0.00003   2.06843
    R8        2.06765  -0.00000   0.00010  -0.00008   0.00001   2.06766
    R9        2.92462   0.00001   0.00005  -0.00001   0.00004   2.92466
   R10        2.06839   0.00001   0.00006  -0.00001   0.00005   2.06844
   R11        2.06763   0.00000  -0.00007   0.00006  -0.00001   2.06761
   R12        2.92031  -0.00004  -0.00010  -0.00007  -0.00017   2.92014
   R13        2.06688  -0.00000  -0.00003   0.00001  -0.00002   2.06686
   R14        2.07132   0.00000   0.00003  -0.00001   0.00001   2.07133
    A1        1.88099   0.00000   0.00001   0.00002   0.00003   1.88101
    A2        1.88116  -0.00001  -0.00002  -0.00018  -0.00020   1.88096
    A3        1.79286  -0.00003  -0.00000  -0.00013  -0.00013   1.79273
    A4        1.93107  -0.00002   0.00004  -0.00013  -0.00009   1.93098
    A5        1.87759  -0.00002  -0.00003  -0.00011  -0.00014   1.87745
    A6        1.86660   0.00003  -0.00002   0.00018   0.00015   1.86676
    A7        1.87822   0.00001   0.00002   0.00008   0.00009   1.87831
    A8        1.98391  -0.00001   0.00006  -0.00009  -0.00003   1.98389
    A9        1.92411  -0.00000  -0.00006   0.00007   0.00001   1.92412
   A10        1.92613   0.00002  -0.00003   0.00021   0.00017   1.92630
   A11        1.95624   0.00001   0.00007   0.00005   0.00012   1.95635
   A12        1.81542  -0.00003   0.00004  -0.00019  -0.00015   1.81526
   A13        1.86958  -0.00001  -0.00002  -0.00002  -0.00004   1.86954
   A14        1.93268   0.00000  -0.00000  -0.00002  -0.00003   1.93266
   A15        1.96487   0.00000  -0.00005  -0.00001  -0.00006   1.96480
   A16        1.93291  -0.00002  -0.00002  -0.00025  -0.00026   1.93265
   A17        1.96492  -0.00002  -0.00000  -0.00011  -0.00011   1.96480
   A18        1.81512   0.00002  -0.00002   0.00013   0.00012   1.81524
   A19        1.86963   0.00000  -0.00004  -0.00002  -0.00006   1.86957
   A20        1.92618   0.00001   0.00002   0.00015   0.00017   1.92635
   A21        1.95614   0.00000   0.00006   0.00010   0.00016   1.95630
   A22        1.86673   0.00001   0.00002  -0.00002  -0.00000   1.86673
   A23        1.93124  -0.00002   0.00003  -0.00026  -0.00023   1.93101
   A24        1.87779  -0.00003   0.00002  -0.00038  -0.00036   1.87742
   A25        1.98362   0.00003   0.00000   0.00027   0.00027   1.98390
   A26        1.92390   0.00001  -0.00007   0.00027   0.00020   1.92411
   A27        1.87825   0.00000   0.00000   0.00009   0.00009   1.87834
    D1       -0.85109  -0.00001  -0.00005  -0.00024  -0.00029  -0.85138
    D2       -2.89824  -0.00001  -0.00007  -0.00020  -0.00027  -2.89850
    D3        1.31807  -0.00001   0.00004  -0.00032  -0.00028   1.31779
    D4       -2.83466   0.00001  -0.00003   0.00001  -0.00002  -2.83468
    D5        1.40138   0.00001  -0.00005   0.00005   0.00001   1.40138
    D6       -0.66550   0.00001   0.00006  -0.00007  -0.00001  -0.66551
    D7       -1.31780  -0.00001  -0.00001   0.00011   0.00010  -1.31770
    D8        0.85119   0.00002   0.00003   0.00027   0.00030   0.85148
    D9        2.89858  -0.00001   0.00006   0.00000   0.00006   2.89864
   D10        0.66565  -0.00002  -0.00000   0.00000  -0.00000   0.66565
   D11        2.83463   0.00000   0.00003   0.00016   0.00019   2.83483
   D12       -1.40116  -0.00002   0.00006  -0.00010  -0.00004  -1.40120
   D13       -1.66500   0.00000  -0.00005   0.00005  -0.00000  -1.66500
   D14        2.53599  -0.00001  -0.00005  -0.00009  -0.00014   2.53585
   D15        0.40855   0.00000  -0.00005   0.00002  -0.00003   0.40852
   D16        0.47145   0.00000   0.00001  -0.00004  -0.00003   0.47142
   D17       -1.61074  -0.00001   0.00002  -0.00019  -0.00017  -1.61090
   D18        2.54501  -0.00000   0.00002  -0.00008  -0.00006   2.54495
   D19        2.58186   0.00001   0.00003   0.00005   0.00008   2.58194
   D20        0.49967  -0.00000   0.00004  -0.00010  -0.00006   0.49961
   D21       -1.62777   0.00000   0.00003   0.00001   0.00005  -1.62773
   D22       -2.06895  -0.00001   0.00004  -0.00008  -0.00005  -2.06900
   D23        2.12156   0.00001   0.00010   0.00019   0.00029   2.12185
   D24        0.00012  -0.00000   0.00004   0.00004   0.00009   0.00021
   D25        0.00011  -0.00001   0.00002   0.00004   0.00006   0.00017
   D26       -2.09257   0.00001   0.00009   0.00032   0.00040  -2.09217
   D27        2.06918   0.00000   0.00003   0.00017   0.00019   2.06938
   D28        2.09252  -0.00001  -0.00004  -0.00001  -0.00006   2.09247
   D29       -0.00015   0.00001   0.00002   0.00026   0.00028   0.00013
   D30       -2.12159  -0.00000  -0.00003   0.00011   0.00008  -2.12151
   D31       -0.40879   0.00000  -0.00002  -0.00008  -0.00010  -0.40890
   D32       -2.54536   0.00001  -0.00007   0.00009   0.00002  -2.54535
   D33        1.62772  -0.00002  -0.00003  -0.00041  -0.00043   1.62729
   D34        1.66489  -0.00000  -0.00004  -0.00023  -0.00027   1.66463
   D35       -0.47167   0.00000  -0.00009  -0.00006  -0.00015  -0.47182
   D36       -2.58177  -0.00002  -0.00005  -0.00055  -0.00060  -2.58237
   D37       -2.53606   0.00001  -0.00004  -0.00009  -0.00013  -2.53619
   D38        1.61056   0.00001  -0.00009   0.00008  -0.00001   1.61055
   D39       -0.49954  -0.00001  -0.00005  -0.00041  -0.00046  -0.50000
         Item               Value     Threshold  Converged?
 Maximum Force            0.000042     0.000450     YES
 RMS     Force            0.000013     0.000300     YES
 Maximum Displacement     0.000697     0.001800     YES
 RMS     Displacement     0.000162     0.001200     YES
 Predicted change in Energy=-6.610118D-08
 Optimization completed.
    -- Stationary point found.
                           ----------------------------
                           !   Optimized Parameters   !
                           ! (Angstroms and Degrees)  !
 --------------------------                            --------------------------
 ! Name  Definition              Value          Derivative Info.                !
 --------------------------------------------------------------------------------
 ! R1    R(1,2)                  1.0224         -DE/DX =    0.0                 !
 ! R2    R(1,3)                  1.4696         -DE/DX =    0.0                 !
 ! R3    R(1,12)                 1.4695         -DE/DX =    0.0                 !
 ! R4    R(3,4)                  1.0937         -DE/DX =    0.0                 !
 ! R5    R(3,5)                  1.0961         -DE/DX =    0.0                 !
 ! R6    R(3,6)                  1.5453         -DE/DX =    0.0                 !
 ! R7    R(6,7)                  1.0946         -DE/DX =    0.0                 !
 ! R8    R(6,8)                  1.0942         -DE/DX =    0.0                 !
 ! R9    R(6,9)                  1.5476         -DE/DX =    0.0                 !
 ! R10   R(9,10)                 1.0945         -DE/DX =    0.0                 !
 ! R11   R(9,11)                 1.0941         -DE/DX =    0.0                 !
 ! R12   R(9,12)                 1.5454         -DE/DX =    0.0                 !
 ! R13   R(12,13)                1.0937         -DE/DX =    0.0                 !
 ! R14   R(12,14)                1.0961         -DE/DX =    0.0                 !
 ! A1    A(2,1,3)              107.7725         -DE/DX =    0.0                 !
 ! A2    A(2,1,12)             107.7823         -DE/DX =    0.0                 !
 ! A3    A(3,1,12)             102.7232         -DE/DX =    0.0                 !
 ! A4    A(1,3,4)              110.6422         -DE/DX =    0.0                 !
 ! A5    A(1,3,5)              107.5782         -DE/DX =    0.0                 !
 ! A6    A(1,3,6)              106.9484         -DE/DX =    0.0                 !
 ! A7    A(4,3,5)              107.6139         -DE/DX =    0.0                 !
 ! A8    A(4,3,6)              113.6699         -DE/DX =    0.0                 !
 ! A9    A(5,3,6)              110.2434         -DE/DX =    0.0                 !
 ! A10   A(3,6,7)              110.3589         -DE/DX =    0.0                 !
 ! A11   A(3,6,8)              112.0841         -DE/DX =    0.0                 !
 ! A12   A(3,6,9)              104.0156         -DE/DX =    0.0                 !
 ! A13   A(7,6,8)              107.1191         -DE/DX =    0.0                 !
 ! A14   A(7,6,9)              110.7345         -DE/DX =    0.0                 !
 ! A15   A(8,6,9)              112.5786         -DE/DX =    0.0                 !
 ! A16   A(6,9,10)             110.7478         -DE/DX =    0.0                 !
 ! A17   A(6,9,11)             112.5814         -DE/DX =    0.0                 !
 ! A18   A(6,9,12)             103.9988         -DE/DX =    0.0                 !
 ! A19   A(10,9,11)            107.1221         -DE/DX =    0.0                 !
 ! A20   A(10,9,12)            110.3623         -DE/DX =    0.0                 !
 ! A21   A(11,9,12)            112.0786         -DE/DX =    0.0                 !
 ! A22   A(1,12,9)             106.9558         -DE/DX =    0.0                 !
 ! A23   A(1,12,13)            110.6516         -DE/DX =    0.0                 !
 ! A24   A(1,12,14)            107.5893         -DE/DX =    0.0                 !
 ! A25   A(9,12,13)            113.6532         -DE/DX =    0.0                 !
 ! A26   A(9,12,14)            110.2316         -DE/DX =    0.0                 !
 ! A27   A(13,12,14)           107.6158         -DE/DX =    0.0                 !
 ! D1    D(2,1,3,4)            -48.7637         -DE/DX =    0.0                 !
 ! D2    D(2,1,3,5)           -166.0568         -DE/DX =    0.0                 !
 ! D3    D(2,1,3,6)             75.5199         -DE/DX =    0.0                 !
 ! D4    D(12,1,3,4)          -162.414          -DE/DX =    0.0                 !
 ! D5    D(12,1,3,5)            80.2929         -DE/DX =    0.0                 !
 ! D6    D(12,1,3,6)           -38.1303         -DE/DX =    0.0                 !
 ! D7    D(2,1,12,9)           -75.5044         -DE/DX =    0.0                 !
 ! D8    D(2,1,12,13)           48.7694         -DE/DX =    0.0                 !
 ! D9    D(2,1,12,14)          166.0766         -DE/DX =    0.0                 !
 ! D10   D(3,1,12,9)            38.1387         -DE/DX =    0.0                 !
 ! D11   D(3,1,12,13)          162.4125         -DE/DX =    0.0                 !
 ! D12   D(3,1,12,14)          -80.2803         -DE/DX =    0.0                 !
 ! D13   D(1,3,6,7)            -95.3976         -DE/DX =    0.0                 !
 ! D14   D(1,3,6,8)            145.3018         -DE/DX =    0.0                 !
 ! D15   D(1,3,6,9)             23.4083         -DE/DX =    0.0                 !
 ! D16   D(4,3,6,7)             27.0122         -DE/DX =    0.0                 !
 ! D17   D(4,3,6,8)            -92.2884         -DE/DX =    0.0                 !
 ! D18   D(4,3,6,9)            145.8181         -DE/DX =    0.0                 !
 ! D19   D(5,3,6,7)            147.9297         -DE/DX =    0.0                 !
 ! D20   D(5,3,6,8)             28.6291         -DE/DX =    0.0                 !
 ! D21   D(5,3,6,9)            -93.2644         -DE/DX =    0.0                 !
 ! D22   D(3,6,9,10)          -118.5423         -DE/DX =    0.0                 !
 ! D23   D(3,6,9,11)           121.5563         -DE/DX =    0.0                 !
 ! D24   D(3,6,9,12)             0.0071         -DE/DX =    0.0                 !
 ! D25   D(7,6,9,10)             0.0061         -DE/DX =    0.0                 !
 ! D26   D(7,6,9,11)          -119.8953         -DE/DX =    0.0                 !
 ! D27   D(7,6,9,12)           118.5555         -DE/DX =    0.0                 !
 ! D28   D(8,6,9,10)           119.8927         -DE/DX =    0.0                 !
 ! D29   D(8,6,9,11)            -0.0087         -DE/DX =    0.0                 !
 ! D30   D(8,6,9,12)          -121.5579         -DE/DX =    0.0                 !
 ! D31   D(6,9,12,1)           -23.4222         -DE/DX =    0.0                 !
 ! D32   D(6,9,12,13)         -145.8386         -DE/DX =    0.0                 !
 ! D33   D(6,9,12,14)           93.2616         -DE/DX =    0.0                 !
 ! D34   D(10,9,12,1)           95.3915         -DE/DX =    0.0                 !
 ! D35   D(10,9,12,13)         -27.0249         -DE/DX =    0.0                 !
 ! D36   D(10,9,12,14)        -147.9247         -DE/DX =    0.0                 !
 ! D37   D(11,9,12,1)         -145.3055         -DE/DX =    0.0                 !
 ! D38   D(11,9,12,13)          92.2781         -DE/DX =    0.0                 !
 ! D39   D(11,9,12,14)         -28.6217         -DE/DX =    0.0                 !
 --------------------------------------------------------------------------------
 Iteration  1 RMS(Cart)=  0.01112226 RMS(Int)=  0.02625213
 Iteration  2 RMS(Cart)=  0.00254822 RMS(Int)=  0.02606819
 Iteration  3 RMS(Cart)=  0.00056184 RMS(Int)=  0.02605251
 Iteration  4 RMS(Cart)=  0.00012465 RMS(Int)=  0.02605026
 Iteration  5 RMS(Cart)=  0.00002769 RMS(Int)=  0.02604982
 Iteration  6 RMS(Cart)=  0.00000615 RMS(Int)=  0.02604973
 Iteration  7 RMS(Cart)=  0.00000137 RMS(Int)=  0.02604970
 Iteration  8 RMS(Cart)=  0.00000030 RMS(Int)=  0.02604970
 Iteration  1 RMS(Cart)=  0.01141148 RMS(Int)=  0.02073590
 Iteration  2 RMS(Cart)=  0.00970004 RMS(Int)=  0.02222385
 Iteration  3 RMS(Cart)=  0.00774490 RMS(Int)=  0.02546620
 Iteration  4 RMS(Cart)=  0.00613964 RMS(Int)=  0.02889383
 Iteration  5 RMS(Cart)=  0.00484011 RMS(Int)=  0.03194876
 Iteration  6 RMS(Cart)=  0.00379927 RMS(Int)=  0.03450136
 Iteration  7 RMS(Cart)=  0.00297238 RMS(Int)=  0.03657085
 Iteration  8 RMS(Cart)=  0.00231951 RMS(Int)=  0.03822166
 Iteration  9 RMS(Cart)=  0.00180647 RMS(Int)=  0.03952589
 Iteration 10 RMS(Cart)=  0.00140476 RMS(Int)=  0.04055002
 Iteration 11 RMS(Cart)=  0.00109110 RMS(Int)=  0.04135090
 Iteration 12 RMS(Cart)=  0.00084670 RMS(Int)=  0.04197544
 Iteration 13 RMS(Cart)=  0.00065658 RMS(Int)=  0.04246147
 Iteration 14 RMS(Cart)=  0.00050888 RMS(Int)=  0.04283915
 Iteration 15 RMS(Cart)=  0.00039423 RMS(Int)=  0.04313233
 Iteration 16 RMS(Cart)=  0.00030532 RMS(Int)=  0.04335972
 Iteration 17 RMS(Cart)=  0.00023640 RMS(Int)=  0.04353597
 Iteration 18 RMS(Cart)=  0.00018300 RMS(Int)=  0.04367254
 Iteration 19 RMS(Cart)=  0.00014164 RMS(Int)=  0.04377830
 Iteration 20 RMS(Cart)=  0.00010962 RMS(Int)=  0.04386020
 Iteration 21 RMS(Cart)=  0.00008483 RMS(Int)=  0.04392360
 Iteration 22 RMS(Cart)=  0.00006564 RMS(Int)=  0.04397267
 Iteration 23 RMS(Cart)=  0.00005079 RMS(Int)=  0.04401065
 Iteration 24 RMS(Cart)=  0.00003930 RMS(Int)=  0.04404004
 Iteration 25 RMS(Cart)=  0.00003040 RMS(Int)=  0.04406278
 Iteration 26 RMS(Cart)=  0.00002352 RMS(Int)=  0.04408038
 Iteration 27 RMS(Cart)=  0.00001820 RMS(Int)=  0.04409399
 Iteration 28 RMS(Cart)=  0.00001408 RMS(Int)=  0.04410452
 Iteration 29 RMS(Cart)=  0.00001089 RMS(Int)=  0.04411267
 Iteration 30 RMS(Cart)=  0.00000843 RMS(Int)=  0.04411898
 Iteration 31 RMS(Cart)=  0.00000652 RMS(Int)=  0.04412386
 Iteration 32 RMS(Cart)=  0.00000504 RMS(Int)=  0.04412763
 Iteration 33 RMS(Cart)=  0.00000390 RMS(Int)=  0.04413055
 Iteration 34 RMS(Cart)=  0.00000302 RMS(Int)=  0.04413281
 Iteration 35 RMS(Cart)=  0.00000233 RMS(Int)=  0.04413455
 Iteration 36 RMS(Cart)=  0.00000181 RMS(Int)=  0.04413591
 Iteration 37 RMS(Cart)=  0.00000140 RMS(Int)=  0.04413695
 Iteration 38 RMS(Cart)=  0.00000108 RMS(Int)=  0.04413776
 Iteration 39 RMS(Cart)=  0.00000084 RMS(Int)=  0.04413839
 GradGradGradGradGradGradGradGradGradGradGradGradGradGradGradGradGradGrad

                          Input orientation:                          
 ---------------------------------------------------------------------
 Center     Atomic      Atomic             Coordinates (Angstroms)
 Number     Number       Type             X           Y           Z
 ---------------------------------------------------------------------
      1          7           0        0.954324    0.433959    0.938989
      2          1           0        1.500447    0.425266    1.803343
      3          6           0        1.589067    1.162995   -0.133621
      4          1           0        1.971033    2.133768    0.194995
      5          1           0        0.877591    1.366074   -0.942629
      6          6           0        2.751250    0.146570   -0.486210
      7          1           0        3.643051    0.431271    0.081208
      8          1           0        3.015780    0.163618   -1.547874
      9          6           0        2.242706   -1.280534   -0.061240
     10          1           0        2.832026   -1.767104    0.722520
     11          1           0        2.237715   -1.968404   -0.912159
     12          6           0        0.842054   -0.912504    0.392298
     13          1           0        0.557399   -1.592406    1.200367
     14          1           0        0.052555   -0.955569   -0.366986
 ---------------------------------------------------------------------
                    Distance matrix (angstroms):
                    1          2          3          4          5
     1  N    0.000000
     2  H    1.022465   0.000000
     3  C    1.443912   2.074590   0.000000
     4  H    2.115791   2.393160   1.093748   0.000000
     5  H    2.101240   2.968742   1.096327   1.754752   0.000000
     6  C    2.311434   2.623782   1.583700   2.240922   2.281689
     7  H    2.822241   2.748915   2.190986   2.388951   3.093520
     8  H    3.241477   3.687187   2.243742   2.830296   2.526673
     9  C    2.366405   2.633889   2.530478   3.434664   3.105627
    10  H    2.901259   2.783482   3.295968   4.029441   4.050845
    11  H    3.293204   3.694208   3.291280   4.257314   3.601335
    12  C    1.457546   2.052841   2.267667   3.254734   2.641063
    13  H    2.081351   2.307362   3.230494   4.110171   3.667091
    14  H    2.109395   2.951851   2.627479   3.679726   2.530233
                    6          7          8          9         10
     6  C    0.000000
     7  H    1.094681   0.000000
     8  H    1.094256   1.766074   0.000000
     9  C    1.573482   2.216198   2.212081   0.000000
    10  H    2.264885   2.429381   2.985991   1.094681   0.000000
    11  H    2.217717   2.952997   2.356913   1.094191   1.750972
    12  C    2.353390   3.122193   3.106025   1.517553   2.190748
    13  H    3.268266   3.856038   4.084126   2.128186   2.330834
    14  H    2.917514   3.875031   3.380501   2.235139   3.093715
                   11         12         13         14
    11  H    0.000000
    12  C    2.182751   0.000000
    13  H    2.725363   1.093741   0.000000
    14  H    2.469408   1.096210   1.765509   0.000000
 Stoichiometry    C4H9N
 Framework group  C1[X(C4H9N)]
 Deg. of freedom    36
 Full point group                 C1      NOp   1
 Largest Abelian subgroup         C1      NOp   1
 Largest concise Abelian subgroup C1      NOp   1
                         Standard orientation:                         
 ---------------------------------------------------------------------
 Center     Atomic      Atomic             Coordinates (Angstroms)
 Number     Number       Type             X           Y           Z
 ---------------------------------------------------------------------
      1          7           0        0.553070   -1.047730   -0.307894
      2          1           0        0.501357   -1.052912   -1.329037
      3          6           0        1.272317    0.085421    0.224586
      4          1           0        2.217182    0.258873   -0.298319
      5          1           0        1.524901   -0.072775    1.279626
      6          6           0        0.209128    1.224392   -0.059106
      7          1           0        0.439921    1.678771   -1.027920
      8          1           0        0.234663    2.018900    0.692893
      9          6           0       -1.200407    0.525513   -0.084070
     10          1           0       -1.729815    0.586074   -1.040306
     11          1           0       -1.870259    0.958925    0.664734
     12          6           0       -0.775452   -0.887669    0.269904
     13          1           0       -1.456982   -1.582131   -0.229605
     14          1           0       -0.765974   -1.145562    1.335304
 ---------------------------------------------------------------------
 Rotational constants (GHZ):           7.1692743           6.5190445           4.0352120
 Standard basis: 6-31G(d) (6D, 7F)
 There are    93 symmetry adapted cartesian basis functions of A   symmetry.
 There are    93 symmetry adapted basis functions of A   symmetry.
    93 basis functions,   176 primitive gaussians,    93 cartesian basis functions
    20 alpha electrons       20 beta electrons
       nuclear repulsion energy       190.9136852450 Hartrees.
 NAtoms=   14 NActive=   14 NUniq=   14 SFac= 1.00D+00 NAtFMM=   60 NAOKFM=F Big=F
 Integral buffers will be    131072 words long.
 Raffenetti 1 integral format.
 Two-electron integral symmetry is turned on.
 One-electron integrals computed using PRISM.
 NBasis=    93 RedAO= T EigKep=  3.18D-03  NBF=    93
 NBsUse=    93 1.00D-06 EigRej= -1.00D+00 NBFU=    93
 Initial guess from the checkpoint file:  "PRLD.scan3.pos.chk"
 B after Tr=    -0.000000    0.000000   -0.000000
         Rot=    0.971666   -0.009712   -0.009300   -0.235976 Ang= -27.34 deg.
 Keep R1 ints in memory in canonical form, NReq=10436285.
 Requested convergence on RMS density matrix=1.00D-08 within 128 cycles.
 Requested convergence on MAX density matrix=1.00D-06.
 Requested convergence on             energy=1.00D-06.
 No special actions if energy rises.
 SCF Done:  E(RHF) =  -211.129703069     A.U. after   11 cycles
            NFock= 11  Conv=0.81D-08     -V/T= 2.0014
 ExpMin= 1.61D-01 ExpMax= 4.17D+03 ExpMxC= 6.27D+02 IAcc=3 IRadAn=         5 AccDes= 0.00D+00
 HarFok:  IExCor=  205 AccDes= 0.00D+00 IRadAn=         5 IDoV=-2 UseB2=F ITyADJ=14
 ICtDFT= 12500011 ScaDFX=  1.000000  1.000000  1.000000  1.000000
 Range of M.O.s used for correlation:     6    93
 NBasis=    93 NAE=    20 NBE=    20 NFC=     5 NFV=     0
 NROrb=     88 NOA=    15 NOB=    15 NVA=    73 NVB=    73
 Fully direct method using O(ONN) memory.
 JobTyp=1 Pass  1:  I=   6 to  20 NPSUse=  1 ParTrn=F ParDer=F DoDerP=T.
 Spin components of T(2) and E(2):
     alpha-alpha T2 =       0.2792383676D-01 E2=     -0.8420176178D-01
     alpha-beta  T2 =       0.1678995762D+00 E2=     -0.5162121136D+00
     beta-beta   T2 =       0.2792383676D-01 E2=     -0.8420176178D-01
 ANorm=    0.1106231101D+01
 E2 =    -0.6846156372D+00 EUMP2 =    -0.21181431870615D+03
          IDoAtm=11111111111111
          Differentiating once with respect to electric field.
                with respect to dipole field.
          Differentiating once with respect to nuclear coordinates.
 Keep R1 ints in memory in canonical form, NReq=10438890.
          There are     1 degrees of freedom in the 1st order CPHF.  IDoFFX=0 NUNeed=     1.
 LinEq1:  Iter=  0 NonCon=     1 RMS=4.25D-03 Max=4.05D-02 NDo=     1
 AX will form     1 AO Fock derivatives at one time.
 LinEq1:  Iter=  1 NonCon=     1 RMS=1.43D-03 Max=1.29D-02 NDo=     1
 LinEq1:  Iter=  2 NonCon=     1 RMS=2.86D-04 Max=3.20D-03 NDo=     1
 LinEq1:  Iter=  3 NonCon=     1 RMS=5.48D-05 Max=3.60D-04 NDo=     1
 LinEq1:  Iter=  4 NonCon=     1 RMS=1.13D-05 Max=9.64D-05 NDo=     1
 LinEq1:  Iter=  5 NonCon=     1 RMS=4.03D-06 Max=4.79D-05 NDo=     1
 LinEq1:  Iter=  6 NonCon=     1 RMS=9.01D-07 Max=1.27D-05 NDo=     1
 LinEq1:  Iter=  7 NonCon=     1 RMS=2.98D-07 Max=3.26D-06 NDo=     1
 LinEq1:  Iter=  8 NonCon=     1 RMS=8.58D-08 Max=7.29D-07 NDo=     1
 LinEq1:  Iter=  9 NonCon=     1 RMS=1.47D-08 Max=1.13D-07 NDo=     1
 LinEq1:  Iter= 10 NonCon=     1 RMS=4.48D-09 Max=3.28D-08 NDo=     1
 LinEq1:  Iter= 11 NonCon=     1 RMS=1.03D-09 Max=7.17D-09 NDo=     1
 LinEq1:  Iter= 12 NonCon=     1 RMS=2.44D-10 Max=3.08D-09 NDo=     1
 LinEq1:  Iter= 13 NonCon=     0 RMS=5.42D-11 Max=3.49D-10 NDo=     1
 Linear equations converged to 1.000D-10 1.000D-09 after    13 iterations.
 End of Minotr F.D. properties file   721 does not exist.
 End of Minotr F.D. properties file   722 does not exist.
 End of Minotr F.D. properties file   788 does not exist.
 Calling FoFJK, ICntrl=  10002127 FMM=F ISym2X=0 I1Cent= 0 IOpClX= 0 NMat=1 NMatS=1 NMatT=0.
 ***** Axes restored to original set *****
 -------------------------------------------------------------------
 Center     Atomic                   Forces (Hartrees/Bohr)
 Number     Number              X              Y              Z
 -------------------------------------------------------------------
      1        7          -0.041615621    0.008178177    0.006546104
      2        1           0.002619634    0.000849543   -0.007166951
      3        6           0.032152217   -0.017145255    0.007788418
      4        1           0.001272080   -0.000753245    0.001562857
      5        1           0.000950520   -0.007144062   -0.000407516
      6        6           0.004666677    0.003498545   -0.014490957
      7        1           0.000221551    0.000391957   -0.000699095
      8        1           0.003022363    0.000433034   -0.000901025
      9        6           0.001085928    0.019000165   -0.028304155
     10        1          -0.000889263    0.006659850    0.002454057
     11        1           0.001343579   -0.000235859   -0.001372285
     12        6          -0.001796266   -0.016183996    0.037982898
     13        1          -0.009193136   -0.000440863    0.000299754
     14        1           0.006159738    0.002892008   -0.003292105
 -------------------------------------------------------------------
 Cartesian Forces:  Max     0.041615621 RMS     0.012600554

 GradGradGradGradGradGradGradGradGradGradGradGradGradGradGradGradGradGrad
 Berny optimization.
 FormGI is forming the generalized inverse of G from B-inverse, IUseBI=4.
 Internal  Forces:  Max     0.024298198 RMS     0.006974763
 Search for a local minimum.
 Step number   1 out of a maximum of   90 on scan point     2 out of     7
 All quantities printed in internal units (Hartrees-Bohrs-Radians)
 Mixed Optimization -- RFO/linear search
 Second derivative matrix not updated -- first step.
 ITU=  0
     Eigenvalues ---    0.00337   0.01585   0.02224   0.02509   0.04071
     Eigenvalues ---    0.04905   0.04941   0.05372   0.05448   0.05707
     Eigenvalues ---    0.05777   0.06147   0.07230   0.08014   0.08194
     Eigenvalues ---    0.08596   0.09105   0.10658   0.11034   0.18381
     Eigenvalues ---    0.19947   0.25794   0.26748   0.27453   0.33265
     Eigenvalues ---    0.33859   0.34128   0.34151   0.34227   0.34292
     Eigenvalues ---    0.34307   0.34361   0.34370   0.35056   0.44063
     Eigenvalues --- 1000.000001000.000001000.000001000.000001000.00000
     Eigenvalues --- 1000.000001000.000001000.000001000.000001000.00000
     Eigenvalues --- 1000.000001000.000001000.000001000.000001000.00000
     Eigenvalues --- 1000.000001000.000001000.000001000.000001000.00000
     Eigenvalues --- 1000.000001000.000001000.000001000.000001000.00000
     Eigenvalues --- 1000.000001000.000001000.000001000.000001000.00000
     Eigenvalues --- 1000.000001000.000001000.000001000.000001000.00000
     Eigenvalues --- 1000.000001000.000001000.000001000.000001000.00000
     Eigenvalues --- 1000.000001000.000001000.000001000.000001000.00000
 RFO step:  Lambda=-1.23280376D-02 EMin= 3.37450825D-03
 Linear search not attempted -- first point.
 Iteration  1 RMS(Cart)=  0.05449111 RMS(Int)=  0.00196852
 Iteration  2 RMS(Cart)=  0.00196817 RMS(Int)=  0.00069856
 Iteration  3 RMS(Cart)=  0.00000240 RMS(Int)=  0.00069855
 Iteration  4 RMS(Cart)=  0.00000000 RMS(Int)=  0.00069855
 Iteration  1 RMS(Cart)=  0.00008424 RMS(Int)=  0.00013241
 Iteration  2 RMS(Cart)=  0.00006593 RMS(Int)=  0.00014323
 Iteration  3 RMS(Cart)=  0.00005160 RMS(Int)=  0.00016435
 Iteration  4 RMS(Cart)=  0.00004038 RMS(Int)=  0.00018612
 Iteration  5 RMS(Cart)=  0.00003160 RMS(Int)=  0.00020536
[...]
           A27        107.61581 108.28485 108.29228 107.81693 107.36922
           D1         -48.76370 -50.90919 -56.48604 -57.81154 -56.96259
           D2        -166.05683-169.06150-177.66502 176.53184 171.90112
           D3          75.51995  71.94768  62.53171  56.08019  52.20909
           D4        -162.41397-163.59229-168.76353-169.87894-168.78406
           D5          80.29291  78.25540  70.05749  64.46444  60.07965
           D6         -38.13032 -40.73542 -49.74578 -55.98721 -59.61238
           D7         -75.50435 -60.13904 -44.56233 -28.51146 -12.26789
           D8          48.76942  62.53926  76.27707  91.07785 106.62341
           D9         166.07659-178.68357-163.83709-148.30511-132.40954
           D10         38.13873  53.13805  68.13823  83.13824  98.13832
           D11        162.41250 175.81635-171.02237-157.27245-142.97037
           D12        -80.28033 -65.40647 -51.13653 -36.65541 -22.00332
           D13        -95.39760-106.58664-103.60459-100.25540 -96.55176
           D14        145.30180 133.66016 136.50720 139.40468 141.27230
           D15         23.40826  14.01319  17.36119  20.45955  23.00076
           D16         27.01225  14.86399  15.64392  16.60827  18.94697
           D17        -92.28836-104.88921-104.24428-103.73165-103.22896
           D18        145.81810 135.46382 136.60971 137.32322 138.49949
           D19        147.92972 136.62625 139.40888 142.45289 146.70588
           D20         28.62911  16.87305  19.52068  22.11297  24.52994
           D21        -93.26443-102.77393 -99.62533 -96.83216 -93.74160
           D22       -118.54231 -98.69114 -94.53617 -92.24786 -90.14675
           D23        121.55627 139.83345 142.24858 142.78163 143.15251
           D24          0.00709  17.14651  20.89431  23.35000  25.07565
           D25          0.00614  21.51522  24.74688  24.93640  23.71644
           D26       -119.89528 -99.96019 -98.46837-100.03410-102.98430
           D27        118.55554 137.35287 140.17736 140.53426 138.93885
           D28        119.89269 141.31284 144.31082 144.44476 144.16249
           D29         -0.00873  19.83743  21.09558  19.47426  17.46176
           D30       -121.55791-102.84952-100.25870 -99.95738-100.61510
           D31        -23.42218 -43.49250 -53.24405 -59.79426 -64.00386
           D32       -145.83858-164.09803-171.70293-175.99661-178.01547
           D33         93.26163  72.66921  63.64915  59.04940  57.46223
           D34         95.39145  73.96710  64.39733  57.70131  51.77327
           D35        -27.02495 -46.63843 -54.06155 -58.50103 -62.23835
           D36       -147.92474-169.87119-178.70947 176.54498 173.23936
           D37       -145.30551-164.68066-170.56181-171.74213-170.58951
           D38         92.27809  74.71382  70.97931  72.05553  75.39887
           D39        -28.62170 -48.51895 -53.66861 -52.89846 -49.12342
                           6         7
     Eigenvalues --    -0.68193  -0.68135
           R1           1.01684   1.02044
           R2           1.42800   1.45759
           R3           1.43339   1.47430
           R4           1.09080   1.09407
           R5           1.09231   1.09523
           R6           3.76909   4.20329
           R7           1.08875   1.09072
           R8           1.08622   1.08574
           R9           1.47666   1.50778
           R10          1.09515   1.09597
           R11          1.09471   1.09741
           R12          1.56986   1.54463
           R13          1.09656   1.09668
           R14          1.09596   1.09835
           A1         114.59904 109.48882
           A2         114.32635 110.35055
           A3         118.80374 117.77739
           A4         111.88551 110.24046
           A5         111.91485 110.95902
           A6          57.14462  48.60697
           A7         114.37108 113.00993
           A8         133.68500 137.56392
           A9         110.83448 109.27859
           A10         63.46771  59.20348
           A11        120.64836 177.52006
           A12         70.75105  61.50857
           A13        116.67298 118.32304
           A14        119.46374 120.63316
           A15        120.00469 120.95022
           A16        112.23339 108.26786
           A17        109.98030 107.04837
           A18        111.09922 118.26252
           A19        107.29023 105.24054
           A20        107.86806 109.99736
           A21        108.20599 107.22631
           A22        114.70306 116.94007
           A23        109.84695 107.95494
           A24        108.56501 109.50677
           A25        105.45006 106.64351
           A26        109.94405 108.81184
           A27        108.13372 106.46477
           D1         -36.83429 -60.18761
           D2        -166.69586 173.84145
           D3          91.96840  76.15976
           D4        -177.07552 172.70172
           D5          53.06291  46.73078
           D6         -48.27283 -50.95091
           D7         -27.20547   1.44412
           D8          91.33577 121.60396
           D9        -150.61173-122.87307
           D10        113.13879 128.13891
           D11       -128.31997-111.70125
           D12        -10.26747   3.82172
           D13       -127.07942-154.44684
           D14        126.22058-150.25859
           D15         12.09265  22.34353
           D16        -37.26447 -80.74276
           D17       -143.96447 -76.55451
           D18        101.90760  96.04762
           D19        129.64645 104.20066
           D20         22.94644 108.38891
           D21        -91.18149 -79.00897
           D22        -95.00664-102.88360
           D23        145.63502 144.11385
           D24         25.85828  23.01335
           D25        -52.79872 -99.67941
           D26       -172.15706 147.31804
           D27         68.06621  26.21754
           D28        150.04075  76.74419
           D29         30.68241 -36.25837
           D30        -89.09433-157.35887
           D31        -82.29546 -83.98777
           D32        156.71640 155.15914
           D33         40.37002  40.68082
           D34         41.10679  41.06721
           D35        -79.88134 -79.78587
           D36        163.77228 165.73580
           D37        156.87681 155.00285
           D38         35.88867  34.14976
           D39        -80.45771 -80.32857
 GradGradGradGradGradGradGradGradGradGradGradGradGradGradGradGradGradGrad

                          Input orientation:                          
 ---------------------------------------------------------------------
 Center     Atomic      Atomic             Coordinates (Angstroms)
 Number     Number       Type             X           Y           Z
 ---------------------------------------------------------------------
      1          7           0        1.136183    0.571839    1.035271
      2          1           0        2.061802    0.650132    1.457642
      3          6           0        0.712591    1.878100    0.546574
      4          1           0        0.666399    2.594390    1.372280
      5          1           0       -0.228942    1.802529   -0.007800
      6          6           0        3.456788   -0.909086   -0.992461
      7          1           0        3.547700    0.152198   -1.227171
      8          1           0        4.189744   -1.593369   -1.408839
      9          6           0        2.387060   -1.398442   -0.049260
     10          1           0        2.842345   -1.554323    0.935403
     11          1           0        2.089490   -2.397931   -0.390985
     12          6           0        1.097215   -0.560423    0.091860
     13          1           0        0.309979   -1.248776    0.422209
     14          1           0        0.798647   -0.199837   -0.901721
 ---------------------------------------------------------------------
                    Distance matrix (angstroms):
                    1          2          3          4          5
     1  N    0.000000
     2  H    1.020441   0.000000
     3  C    1.457591   2.039196   0.000000
     4  H    2.103564   2.394697   1.094073   0.000000
     5  H    2.113329   2.953481   1.095229   1.825733   0.000000
     6  C    3.419071   3.221824   4.203290   5.064841   4.680493
     7  H    3.333191   3.108706   3.763343   4.585122   4.298079
     8  H    4.470575   4.216415   5.288225   6.138885   5.746288
     9  C    2.573502   2.563826   3.727545   4.574293   4.134175
    10  H    2.727916   2.396164   4.058147   4.705042   4.646600
    11  H    3.429656   3.564952   4.589042   5.482478   4.813089
    12  C    1.474300   2.064276   2.510198   3.431897   2.711487
    13  H    2.091196   2.783318   3.155141   3.974870   3.128227
    14  H    2.112192   2.807954   2.534321   3.605034   2.421673
                    6          7          8          9         10
     6  C    0.000000
     7  H    1.090723   0.000000
     8  H    1.085744   1.868751   0.000000
     9  C    1.507785   2.266946   2.266301   0.000000
    10  H    2.123802   2.843671   2.704160   1.095968   0.000000
    11  H    2.109013   3.054299   2.468686   1.097407   1.742921
    12  C    2.620096   2.872725   3.589264   1.544634   2.178275
    13  H    3.466855   3.894358   4.303959   2.135170   2.601846
    14  H    2.752632   2.790545   3.701168   2.164810   3.063717
                   11         12         13         14
    11  H    0.000000
    12  C    2.143406   0.000000
    13  H    2.269031   1.096677   0.000000
    14  H    2.599759   1.098348   1.758369   0.000000
 Stoichiometry    C4H9N
 Framework group  C1[X(C4H9N)]
 Deg. of freedom    36
 Full point group                 C1      NOp   1
 Largest Abelian subgroup         C1      NOp   1
 Largest concise Abelian subgroup C1      NOp   1
                         Standard orientation:                         
 ---------------------------------------------------------------------
 Center     Atomic      Atomic             Coordinates (Angstroms)
 Number     Number       Type             X           Y           Z
 ---------------------------------------------------------------------
      1          7           0        1.174482   -0.232711   -0.464030
      2          1           0        0.819963    0.231160   -1.300952
      3          6           0        2.177719    0.611950    0.172078
      4          1           0        3.010939    0.791953   -0.513734
      5          1           0        2.496012    0.188152    1.130521
      6          6           0       -2.017386    0.860767    0.089443
      7          1           0       -1.408034    1.752106    0.243977
      8          1           0       -3.097303    0.971727    0.071906
      9          6           0       -1.370852   -0.475953   -0.172448
     10          1           0       -1.401064   -0.666710   -1.251264
     11          1           0       -2.019735   -1.240161    0.273915
     12          6           0        0.056566   -0.716181    0.366682
     13          1           0        0.168715   -1.800506    0.486523
     14          1           0        0.132851   -0.282248    1.372789
 ---------------------------------------------------------------------
 Rotational constants (GHZ):          11.0662065           2.6043787           2.3540055

 **********************************************************************

            Population analysis using the SCF density.

 **********************************************************************

 Orbital symmetries:
       Occupied  (A) (A) (A) (A) (A) (A) (A) (A) (A) (A) (A) (A)
                 (A) (A) (A) (A) (A) (A) (A) (A)
       Virtual   (A) (A) (A) (A) (A) (A) (A) (A) (A) (A) (A) (A)
                 (A) (A) (A) (A) (A) (A) (A) (A) (A) (A) (A) (A)
                 (A) (A) (A) (A) (A) (A) (A) (A) (A) (A) (A) (A)
                 (A) (A) (A) (A) (A) (A) (A) (A) (A) (A) (A) (A)
                 (A) (A) (A) (A) (A) (A) (A) (A) (A) (A) (A) (A)
                 (A) (A) (A) (A) (A) (A) (A) (A) (A) (A) (A) (A)
                 (A)
 The electronic state is 1-A.
 Alpha  occ. eigenvalues --  -15.61874 -11.27760 -11.26686 -11.23488 -11.22230
 Alpha  occ. eigenvalues --   -1.22628  -1.03710  -0.91917  -0.85412  -0.79043
 Alpha  occ. eigenvalues --   -0.65695  -0.63161  -0.62579  -0.56601  -0.54445
 Alpha  occ. eigenvalues --   -0.52768  -0.51038  -0.48052  -0.43275  -0.15840
 Alpha virt. eigenvalues --   -0.01196   0.22624   0.25783   0.26159   0.29243
 Alpha virt. eigenvalues --    0.30388   0.31402   0.32161   0.33898   0.35587
 Alpha virt. eigenvalues --    0.37788   0.42313   0.46902   0.47518   0.71316
 Alpha virt. eigenvalues --    0.71880   0.75365   0.77446   0.82485   0.84454
 Alpha virt. eigenvalues --    0.85863   0.87829   0.90195   0.91440   0.94560
 Alpha virt. eigenvalues --    0.99534   1.04499   1.07417   1.12424   1.13159
 Alpha virt. eigenvalues --    1.14052   1.16094   1.16930   1.18108   1.19927
 Alpha virt. eigenvalues --    1.21539   1.22844   1.24095   1.26870   1.34140
 Alpha virt. eigenvalues --    1.41332   1.57197   1.72380   1.74343   1.83376
 Alpha virt. eigenvalues --    1.88644   2.00210   2.05842   2.10854   2.14961
 Alpha virt. eigenvalues --    2.19230   2.25744   2.30182   2.34449   2.38185
 Alpha virt. eigenvalues --    2.41586   2.45399   2.51192   2.59135   2.60379
 Alpha virt. eigenvalues --    2.66785   2.72613   2.76449   2.78975   2.96331
 Alpha virt. eigenvalues --    3.00529   3.09128   3.10378   4.25176   4.51966
 Alpha virt. eigenvalues --    4.57556   4.71275   4.90692
          Condensed to atoms (all electrons):
               1          2          3          4          5          6
     1  N    7.004981   0.320620   0.278388  -0.040771  -0.040441   0.003340
     2  H    0.320620   0.357752  -0.031590  -0.002454   0.003845   0.003108
     3  C    0.278388  -0.031590   5.260642   0.382500   0.384415   0.000513
     4  H   -0.040771  -0.002454   0.382500   0.507964  -0.032093   0.000014
     5  H   -0.040441   0.003845   0.384415  -0.032093   0.509599  -0.000076
     6  C    0.003340   0.003108   0.000513   0.000014  -0.000076   5.439898
     7  H    0.000732   0.000289   0.000604   0.000003  -0.000009   0.390289
     8  H   -0.000013  -0.000024  -0.000000  -0.000000  -0.000000   0.393871
     9  C   -0.036871  -0.003383   0.001214  -0.000108   0.000104   0.396996
    10  H   -0.007030  -0.001950   0.001044  -0.000037  -0.000049  -0.074581
    11  H    0.004058   0.000434  -0.000254   0.000004   0.000022  -0.057676
    12  C    0.250059  -0.036972  -0.050590   0.003362  -0.002585  -0.060080
    13  H   -0.046104   0.002811   0.000641  -0.000146   0.000248   0.003220
    14  H   -0.056989   0.001025   0.014209  -0.000317  -0.003337   0.019691
               7          8          9         10         11         12
     1  N    0.000732  -0.000013  -0.036871  -0.007030   0.004058   0.250059
     2  H    0.000289  -0.000024  -0.003383  -0.001950   0.000434  -0.036972
     3  C    0.000604  -0.000000   0.001214   0.001044  -0.000254  -0.050590
     4  H    0.000003  -0.000000  -0.000108  -0.000037   0.000004   0.003362
     5  H   -0.000009  -0.000000   0.000104  -0.000049   0.000022  -0.002585
     6  C    0.390289   0.393871   0.396996  -0.074581  -0.057676  -0.060080
     7  H    0.494760  -0.025881  -0.040518   0.002025   0.002672  -0.003366
     8  H   -0.025881   0.488225  -0.035704   0.000719  -0.002538   0.002190
     9  C   -0.040518  -0.035704   5.041733   0.370067   0.390908   0.329874
    10  H    0.002025   0.000719   0.370067   0.644723  -0.054670  -0.044600
    11  H    0.002672  -0.002538   0.390908  -0.054670   0.585097  -0.024048
    12  C   -0.003366   0.002190   0.329874  -0.044600  -0.024048   4.991172
    13  H    0.000008  -0.000069  -0.047901  -0.003416  -0.001634   0.411172
    14  H    0.001249   0.000008  -0.028266   0.009220  -0.008180   0.337692
              13         14
     1  N   -0.046104  -0.056989
     2  H    0.002811   0.001025
     3  C    0.000641   0.014209
     4  H   -0.000146  -0.000317
     5  H    0.000248  -0.003337
     6  C    0.003220   0.019691
     7  H    0.000008   0.001249
     8  H   -0.000069   0.000008
     9  C   -0.047901  -0.028266
    10  H   -0.003416   0.009220
    11  H   -0.001634  -0.008180
    12  C    0.411172   0.337692
    13  H    0.533714  -0.036888
    14  H   -0.036888   0.589208
 Mulliken charges:
               1
     1  N   -0.633959
     2  H    0.386489
     3  C   -0.241737
     4  H    0.182079
     5  H    0.180359
     6  C   -0.458527
     7  H    0.177144
     8  H    0.179215
     9  C   -0.338146
    10  H    0.158536
    11  H    0.165806
    12  C   -0.103280
    13  H    0.184344
    14  H    0.161675
 Sum of Mulliken charges =  -0.00000
 Mulliken charges with hydrogens summed into heavy atoms:
               1
     1  N   -0.247470
     3  C    0.120702
     6  C   -0.102167
     9  C   -0.013803
    12  C    0.242739
 Electronic spatial extent (au):  <R**2>=            570.7271
 Charge=             -0.0000 electrons
 Dipole moment (field-independent basis, Debye):
    X=              0.7852    Y=             -0.6637    Z=             -0.4888  Tot=              1.1385
 Quadrupole moment (field-independent basis, Debye-Ang):
   XX=            -33.3963   YY=            -34.9788   ZZ=            -32.6920
   XY=              1.6393   XZ=              0.3590   YZ=             -1.7919
 Traceless Quadrupole moment (field-independent basis, Debye-Ang):
   XX=              0.2927   YY=             -1.2898   ZZ=              0.9970
   XY=              1.6393   XZ=              0.3590   YZ=             -1.7919
 Octapole moment (field-independent basis, Debye-Ang**2):
  XXX=              7.5917  YYY=             -4.8951  ZZZ=             -4.3882  XYY=             -1.7405
  XXY=              0.1354  XXZ=             -0.4250  XZZ=              6.0779  YZZ=             -1.0499
  YYZ=              0.3410  XYZ=             -2.3858
 Hexadecapole moment (field-independent basis, Debye-Ang**3):
 XXXX=           -538.4444 YYYY=           -142.3606 ZZZZ=            -74.2769 XXXY=              8.0190
 XXXZ=             -0.5409 YYYX=             -3.4430 YYYZ=             -2.3884 ZZZX=              0.0719
 ZZZY=             -3.2658 XXYY=           -127.3378 XXZZ=           -111.6389 YYZZ=            -39.4263
 XXYZ=             -5.3325 YYXZ=             -2.6720 ZZXY=              4.3048
 N-N= 1.706163548182D+02 E-N=-8.320465146107D+02  KE= 2.102476586853D+02
 1\1\GINC-C404-023\Scan\RMP2-FC\6-31G(d)\C4H9N1\TG455515\02-Apr-2021\0\
 \# opt=modredundant MP2/6-31g(d) Geom=PrintInputOrient\\PRLD Dihedral/
 Improper Scan\\0,1\N,1.1361826787,0.5718393633,1.0352711522\H,2.061802
 2858,0.6501319033,1.4576423881\C,0.7125914363,1.8780996595,0.546573855
 7\H,0.6663987834,2.5943895931,1.3722800503\H,-0.2289424062,1.802528559
 5,-0.0078002851\C,3.4567875365,-0.9090855205,-0.9924614935\H,3.5477001
 194,0.1521978057,-1.2271712801\H,4.1897439651,-1.5933694329,-1.4088394
 078\C,2.3870602936,-1.3984419238,-0.0492602632\H,2.8423446636,-1.55432
 27246,0.9354032861\H,2.0894902629,-2.3979312787,-0.3909854647\C,1.0972
 145474,-0.5604229767,0.0918599154\H,0.3099787931,-1.2487762392,0.42220
 86805\H,0.7986466398,-0.1998367575,-0.9017211699\\Version=ES64L-G16Rev
 A.03\State=1-A\HF=-211.1432096,-211.1382274,-211.116231,-211.0695825,-
 211.0004842,-210.9036657,-210.8650845\MP2=-211.8273514,-211.8235168,-2
 11.8036589,-211.7613582,-211.6992914,-211.6819336,-211.6813505\RMSD=5.
 092e-09,8.087e-09,5.954e-09,5.877e-09,5.688e-09,9.994e-09,8.894e-09\PG
 =C01 [X(C4H9N1)]\\@


 THE WHOLE OF SCIENCE IS NOTHING MORE THAN A REFINEMENT OF EVERYDAY THINKING.
                                                              -- A. EINSTEIN
 Job cpu time:       0 days  0 hours 38 minutes  1.3 seconds.
 Elapsed time:       0 days  0 hours 37 minutes 31.1 seconds.
 File lengths (MBytes):  RWF=     10 Int=      0 D2E=      0 Chk=      3 Scr=      1
 Normal termination of Gaussian 16 at Fri Apr  2 19:34:59 2021.
