 Entering Gaussian System, Link 0=g16
 Initial command:
 /home1/apps/gaussian/16rA.03/g16/l1.exe "/tmp/Gau-176911.inp" -scrdir="/tmp/"
 Entering Link 1 = /home1/apps/gaussian/16rA.03/g16/l1.exe PID=    176912.
  
 Copyright (c) 1988,1990,1992,1993,1995,1998,2003,2009,2016,
            Gaussian, Inc.  All Rights Reserved.
  
 This is part of the Gaussian(R) 16 program.  It is based on
 the Gaussian(R) 09 system (copyright 2009, Gaussian, Inc.),
 the Gaussian(R) 03 system (copyright 2003, Gaussian, Inc.),
 the Gaussian(R) 98 system (copyright 1998, Gaussian, Inc.),
 the Gaussian(R) 94 system (copyright 1995, Gaussian, Inc.),
 the Gaussian 92(TM) system (copyright 1992, Gaussian, Inc.),
 the Gaussian 90(TM) system (copyright 1990, Gaussian, Inc.),
 the Gaussian 88(TM) system (copyright 1988, Gaussian, Inc.),
 the Gaussian 86(TM) system (copyright 1986, Carnegie Mellon
 University), and the Gaussian 82(TM) system (copyright 1983,
 Carnegie Mellon University). Gaussian is a federally registered
 trademark of Gaussian, Inc.
  
 This software contains proprietary and confidential information,
 including trade secrets, belonging to Gaussian, Inc.
  
 This software is provided under written license and may be
 used, copied, transmitted, or stored only in accord with that
 written license.
  
 The following legend is applicable only to US Government
 contracts under FAR:
  
                    RESTRICTED RIGHTS LEGEND
  
 Use, reproduction and disclosure by the US Government is
 subject to restrictions as set forth in subparagraphs (a)
 and (c) of the Commercial Computer Software - Restricted
 Rights clause in FAR 52.227-19.
  
 Gaussian, Inc.
 340 Quinnipiac St., Bldg. 40, Wallingford CT 06492
  
  
 ---------------------------------------------------------------
 Warning -- This program may not be used in any manner that
 competes with the business of Gaussian, Inc. or will provide
 assistance to any competitor of Gaussian, Inc.  The licensee
 of this program is prohibited from giving any competitor of
 Gaussian, Inc. access to this program.  By using this program,
 the user acknowledges that Gaussian, Inc. is engaged in the
 business of creating and licensing software in the field of
 computational chemistry and represents and warrants to the
 licensee that it is not a competitor of Gaussian, Inc. and that
 it will not use this program in any manner prohibited above.
 ---------------------------------------------------------------
  

 Cite this work as:
 Gaussian 16, Revision A.03,
 M. J. Frisch, G. W. Trucks, H. B. Schlegel, G. E. Scuseria, 
 M. A. Robb, J. R. Cheeseman, G. Scalmani, V. Barone, 
 G. A. Petersson, H. Nakatsuji, X. Li, M. Caricato, A. V. Marenich, 
 J. Bloino, B. G. Janesko, R. Gomperts, B. Mennucci, H. P. Hratchian, 
 J. V. Ortiz, A. F. Izmaylov, J. L. Sonnenberg, D. Williams-Young, 
 F. Ding, F. Lipparini, F. Egidi, J. Goings, B. Peng, A. Petrone, 
 T. Henderson, D. Ranasinghe, V. G. Zakrzewski, J. Gao, N. Rega, 
 G. Zheng, W. Liang, M. Hada, M. Ehara, K. Toyota, R. Fukuda, 
 J. Hasegawa, M. Ishida, T. Nakajima, Y. Honda, O. Kitao, H. Nakai, 
 T. Vreven, K. Throssell, J. A. Montgomery, Jr., J. E. Peralta, 
 F. Ogliaro, M. J. Bearpark, J. J. Heyd, E. N. Brothers, K. N. Kudin, 
 V. N. Staroverov, T. A. Keith, R. Kobayashi, J. Normand, 
 K. Raghavachari, A. P. Rendell, J. C. Burant, S. S. Iyengar, 
 J. Tomasi, M. Cossi, J. M. Millam, M. Klene, C. Adamo, R. Cammi, 
 J. W. Ochterski, R. L. Martin, K. Morokuma, O. Farkas, 
 J. B. Foresman, and D. J. Fox, Gaussian, Inc., Wallingford CT, 2016.
 
 ******************************************
 Gaussian 16:  ES64L-G16RevA.03 25-Dec-2016
                 2-Apr-2021 
 ******************************************
 %chk=PRLD.scan4.pos.chk
 %nproc=1
 Will use up to    1 processors via shared memory.
 %mem=1GB
 -----------------------------------------------------
 # opt=modredundant MP2/6-31g(d) Geom=PrintInputOrient
 -----------------------------------------------------
 1/18=120,19=15,38=1/1,3;
 2/9=2110,12=2,17=6,18=5,40=1/2;
 3/5=1,6=6,7=1,11=9,25=1,30=1,71=1/1,2,3;
 4//1;
 5/5=2,38=5/2;
 8/6=4,10=2/1;
 9/15=2,16=-3/6;
 10/5=1/2;
 6/7=2,8=2,9=2,10=2/1;
 7/12=2/1,2,3,16;
 1/18=20,19=15/3(2);
 2/9=2110/2;
 99//99;
 2/9=2110/2;
 3/5=1,6=6,7=1,11=9,25=1,30=1,71=1/1,2,3;
 4/5=5,16=3,69=1/1;
 5/5=2,38=5/2;
 8/6=4,10=2/1;
 9/15=2,16=-3/6;
 10/5=1/2;
 7/12=2/1,2,3,16;
 1/18=20,19=15/3(-8);
 2/9=2110/2;
 6/7=2,8=2,9=2,10=2/1;
 99//99;
 ---------------------------
 PRLD Dihedral/Improper Scan
 ---------------------------
 Symbolic Z-matrix:
 Charge =  0 Multiplicity = 1
 N1                    0.844     0.456     0.923 
 H2                    1.372     0.495     1.798 
 C3                    1.643     1.125    -0.113 
 H4                    2.        2.097     0.243 
 H5                    0.987     1.307    -0.971 
 C6                    2.779     0.153    -0.504 
 H7                    3.689     0.384     0.059 
 H8                    3.031     0.222    -1.566 
 C9                    2.231    -1.24     -0.112 
 H10                   2.866    -1.707     0.647 
 H11                   2.185    -1.928    -0.962 
 C12                   0.83     -0.941     0.469 
 H13                   0.542    -1.609     1.286 
 H14                   0.068    -1.027    -0.314 
 
 The following ModRedundant input section has been read:
 D       1       3       6       9 S   6 15.000                                
 

 GradGradGradGradGradGradGradGradGradGradGradGradGradGradGradGradGradGrad
 Berny optimization.
 Initialization pass.
                           ----------------------------
                           !    Initial Parameters    !
                           ! (Angstroms and Degrees)  !
 --------------------------                            --------------------------
 ! Name  Definition              Value          Derivative Info.                !
 --------------------------------------------------------------------------------
 ! R1    R(1,2)                  1.0227         estimate D2E/DX2                !
 ! R2    R(1,3)                  1.4694         estimate D2E/DX2                !
 ! R3    R(1,12)                 1.469          estimate D2E/DX2                !
 ! R4    R(3,4)                  1.095          estimate D2E/DX2                !
 ! R5    R(3,5)                  1.0953         estimate D2E/DX2                !
 ! R6    R(3,6)                  1.5454         estimate D2E/DX2                !
 ! R7    R(6,7)                  1.0947         estimate D2E/DX2                !
 ! R8    R(6,8)                  1.0937         estimate D2E/DX2                !
 ! R9    R(6,9)                  1.5474         estimate D2E/DX2                !
 ! R10   R(9,10)                 1.0943         estimate D2E/DX2                !
 ! R11   R(9,11)                 1.0945         estimate D2E/DX2                !
 ! R12   R(9,12)                 1.5459         estimate D2E/DX2                !
 ! R13   R(12,13)                1.0939         estimate D2E/DX2                !
 ! R14   R(12,14)                1.096          estimate D2E/DX2                !
 ! A1    A(2,1,3)              107.7654         estimate D2E/DX2                !
 ! A2    A(2,1,12)             107.7946         estimate D2E/DX2                !
 ! A3    A(3,1,12)             102.7239         estimate D2E/DX2                !
 ! A4    A(1,3,4)              110.6221         estimate D2E/DX2                !
 ! A5    A(1,3,5)              107.5946         estimate D2E/DX2                !
 ! A6    A(1,3,6)              106.9617         estimate D2E/DX2                !
 ! A7    A(4,3,5)              107.6053         estimate D2E/DX2                !
 ! A8    A(4,3,6)              113.6363         estimate D2E/DX2                !
 ! A9    A(5,3,6)              110.279          estimate D2E/DX2                !
 ! A10   A(3,6,7)              110.3782         estimate D2E/DX2                !
 ! A11   A(3,6,8)              112.0481         estimate D2E/DX2                !
 ! A12   A(3,6,9)              103.9924         estimate D2E/DX2                !
 ! A13   A(7,6,8)              107.1301         estimate D2E/DX2                !
 ! A14   A(7,6,9)              110.7358         estimate D2E/DX2                !
 ! A15   A(8,6,9)              112.6059         estimate D2E/DX2                !
 ! A16   A(6,9,10)             110.7565         estimate D2E/DX2                !
 ! A17   A(6,9,11)             112.5829         estimate D2E/DX2                !
 ! A18   A(6,9,12)             104.0073         estimate D2E/DX2                !
 ! A19   A(10,9,11)            107.145          estimate D2E/DX2                !
 ! A20   A(10,9,12)            110.3511         estimate D2E/DX2                !
 ! A21   A(11,9,12)            112.0469         estimate D2E/DX2                !
 ! A22   A(1,12,9)             106.9451         estimate D2E/DX2                !
 ! A23   A(1,12,13)            110.635          estimate D2E/DX2                !
 ! A24   A(1,12,14)            107.581          estimate D2E/DX2                !
 ! A25   A(9,12,13)            113.6523         estimate D2E/DX2                !
 ! A26   A(9,12,14)            110.2689         estimate D2E/DX2                !
 ! A27   A(13,12,14)           107.615          estimate D2E/DX2                !
 ! D1    D(2,1,3,4)            -48.7385         estimate D2E/DX2                !
 ! D2    D(2,1,3,5)           -166.0198         estimate D2E/DX2                !
 ! D3    D(2,1,3,6)             75.4998         estimate D2E/DX2                !
 ! D4    D(12,1,3,4)          -162.4            estimate D2E/DX2                !
 ! D5    D(12,1,3,5)            80.3186         estimate D2E/DX2                !
 ! D6    D(12,1,3,6)           -38.1617         estimate D2E/DX2                !
 ! D7    D(2,1,12,9)           -75.5014         estimate D2E/DX2                !
 ! D8    D(2,1,12,13)           48.7538         estimate D2E/DX2                !
 ! D9    D(2,1,12,14)          166.0459         estimate D2E/DX2                !
 ! D10   D(3,1,12,9)            38.1387         estimate D2E/DX2                !
 ! D11   D(3,1,12,13)          162.3939         estimate D2E/DX2                !
 ! D12   D(3,1,12,14)          -80.314          estimate D2E/DX2                !
 ! D13   D(1,3,6,7)            -95.3684         estimate D2E/DX2                !
 ! D14   D(1,3,6,8)            145.3276         estimate D2E/DX2                !
 ! D15   D(1,3,6,9)             23.4354         Scan                            !
 ! D16   D(4,3,6,7)             27.004          estimate D2E/DX2                !
 ! D17   D(4,3,6,8)            -92.2999         estimate D2E/DX2                !
 ! D18   D(4,3,6,9)            145.8078         estimate D2E/DX2                !
 ! D19   D(5,3,6,7)            147.9132         estimate D2E/DX2                !
 ! D20   D(5,3,6,8)             28.6092         estimate D2E/DX2                !
 ! D21   D(5,3,6,9)            -93.2831         estimate D2E/DX2                !
 ! D22   D(3,6,9,10)          -118.5629         estimate D2E/DX2                !
 ! D23   D(3,6,9,11)           121.4993         estimate D2E/DX2                !
 ! D24   D(3,6,9,12)            -0.0176         estimate D2E/DX2                !
 ! D25   D(7,6,9,10)            -0.0044         estimate D2E/DX2                !
 ! D26   D(7,6,9,11)          -119.9421         estimate D2E/DX2                !
 ! D27   D(7,6,9,12)           118.541          estimate D2E/DX2                !
 ! D28   D(8,6,9,10)           119.9156         estimate D2E/DX2                !
 ! D29   D(8,6,9,11)            -0.0222         estimate D2E/DX2                !
 ! D30   D(8,6,9,12)          -121.5391         estimate D2E/DX2                !
 ! D31   D(6,9,12,1)           -23.4104         estimate D2E/DX2                !
 ! D32   D(6,9,12,13)         -145.7976         estimate D2E/DX2                !
 ! D33   D(6,9,12,14)           93.2771         estimate D2E/DX2                !
 ! D34   D(10,9,12,1)           95.4127         estimate D2E/DX2                !
 ! D35   D(10,9,12,13)         -26.9744         estimate D2E/DX2                !
 ! D36   D(10,9,12,14)        -147.8998         estimate D2E/DX2                !
 ! D37   D(11,9,12,1)         -145.2836         estimate D2E/DX2                !
 ! D38   D(11,9,12,13)          92.3293         estimate D2E/DX2                !
 ! D39   D(11,9,12,14)         -28.5961         estimate D2E/DX2                !
 --------------------------------------------------------------------------------
 Trust Radius=3.00D-01 FncErr=1.00D-07 GrdErr=1.00D-07 EigMax=2.50D+02 EigMin=1.00D-04
 Number of optimizations in scan=   7
 Number of steps in this run=     90 maximum allowed number of steps=    100.
 GradGradGradGradGradGradGradGradGradGradGradGradGradGradGradGradGradGrad

                          Input orientation:                          
 ---------------------------------------------------------------------
 Center     Atomic      Atomic             Coordinates (Angstroms)
 Number     Number       Type             X           Y           Z
 ---------------------------------------------------------------------
      1          7           0        0.844000    0.456000    0.923000
      2          1           0        1.372000    0.495000    1.798000
      3          6           0        1.643000    1.125000   -0.113000
      4          1           0        2.000000    2.097000    0.243000
      5          1           0        0.987000    1.307000   -0.971000
      6          6           0        2.779000    0.153000   -0.504000
      7          1           0        3.689000    0.384000    0.059000
      8          1           0        3.031000    0.222000   -1.566000
      9          6           0        2.231000   -1.240000   -0.112000
     10          1           0        2.866000   -1.707000    0.647000
     11          1           0        2.185000   -1.928000   -0.962000
     12          6           0        0.830000   -0.941000    0.469000
     13          1           0        0.542000   -1.609000    1.286000
     14          1           0        0.068000   -1.027000   -0.314000
 ---------------------------------------------------------------------
                    Distance matrix (angstroms):
                    1          2          3          4          5
     1  N    0.000000
     2  H    1.022707   0.000000
     3  C    1.469441   2.030335   0.000000
     4  H    2.119343   2.319227   1.094974   0.000000
     5  H    2.081318   2.911173   1.095274   1.767502   0.000000
     6  C    2.423296   2.719525   1.545368   2.223508   2.181987
     7  H    2.974173   2.899126   2.182838   2.412664   3.035397
     8  H    3.321573   3.760759   2.202989   2.801975   2.389390
     9  C    2.423099   2.719597   2.437000   3.363771   2.961862
    10  H    2.973757   2.899248   3.177035   3.922192   3.902917
    11  H    3.321891   3.761582   3.214868   4.205577   3.449712
    12  C    1.468986   2.030296   2.295223   3.263345   2.674276
    13  H    2.118301   2.319021   3.262539   4.116801   3.714180
    14  H    2.081258   2.911605   2.674347   3.715138   2.593023
                    6          7          8          9         10
     6  C    0.000000
     7  H    1.094728   0.000000
     8  H    1.093668   1.760634   0.000000
     9  C    1.547390   2.189151   2.211687   0.000000
    10  H    2.189057   2.322790   2.940346   1.094255   0.000000
    11  H    2.212049   2.941054   2.388102   1.094514   1.761103
    12  C    2.437656   3.177673   3.215306   1.545886   2.182598
    13  H    3.363467   3.921886   4.204948   2.223350   2.412240
    14  H    2.962773   3.904061   3.450634   2.182829   3.035577
                   11         12         13         14
    11  H    0.000000
    12  C    2.204077   0.000000
    13  H    2.802626   1.093918   0.000000
    14  H    2.390271   1.095960   1.767314   0.000000
 Stoichiometry    C4H9N
 Framework group  C1[X(C4H9N)]
 Deg. of freedom    36
 Full point group                 C1      NOp   1
 Largest Abelian subgroup         C1      NOp   1
 Largest concise Abelian subgroup C1      NOp   1
                         Standard orientation:                         
 ---------------------------------------------------------------------
 Center     Atomic      Atomic             Coordinates (Angstroms)
 Number     Number       Type             X           Y           Z
 ---------------------------------------------------------------------
      1          7           0       -0.009754   -1.267896   -0.216048
      2          1           0       -0.009609   -1.307741   -1.237979
      3          6           0        1.144047   -0.459296    0.201285
      4          1           0        2.052841   -0.790293   -0.312042
      5          1           0        1.291688   -0.622098    1.274281
      6          6           0        0.781546    1.017994   -0.071425
      7          1           0        1.171547    1.332796   -1.044681
      8          1           0        1.207027    1.690375    0.678894
      9          6           0       -0.765800    1.029688   -0.071443
     10          1           0       -1.151178    1.350244   -1.044131
     11          1           0       -1.181004    1.708768    0.679833
     12          6           0       -1.151114   -0.442432    0.200878
     13          1           0       -2.063843   -0.759288   -0.312137
     14          1           0       -1.301266   -0.603214    1.274532
 ---------------------------------------------------------------------
 Rotational constants (GHZ):           6.8866106           6.6914801           3.9136725
 Standard basis: 6-31G(d) (6D, 7F)
 There are    93 symmetry adapted cartesian basis functions of A   symmetry.
 There are    93 symmetry adapted basis functions of A   symmetry.
    93 basis functions,   176 primitive gaussians,    93 cartesian basis functions
    20 alpha electrons       20 beta electrons
       nuclear repulsion energy       190.0136865772 Hartrees.
 NAtoms=   14 NActive=   14 NUniq=   14 SFac= 1.00D+00 NAtFMM=   60 NAOKFM=F Big=F
 Integral buffers will be    131072 words long.
 Raffenetti 1 integral format.
 Two-electron integral symmetry is turned on.
 One-electron integrals computed using PRISM.
 NBasis=    93 RedAO= T EigKep=  3.15D-03  NBF=    93
 NBsUse=    93 1.00D-06 EigRej= -1.00D+00 NBFU=    93
 ExpMin= 1.61D-01 ExpMax= 4.17D+03 ExpMxC= 6.27D+02 IAcc=3 IRadAn=         5 AccDes= 0.00D+00
 Harris functional with IExCor=  205 and IRadAn=       5 diagonalized for initial guess.
 HarFok:  IExCor=  205 AccDes= 0.00D+00 IRadAn=         5 IDoV= 1 UseB2=F ITyADJ=14
 ICtDFT=  3500011 ScaDFX=  1.000000  1.000000  1.000000  1.000000
 FoFCou: FMM=F IPFlag=           0 FMFlag=      100000 FMFlg1=           0
         NFxFlg=           0 DoJE=T BraDBF=F KetDBF=T FulRan=T
         wScrn=  0.000000 ICntrl=       500 IOpCl=  0 I1Cent=   200000004 NGrid=           0
         NMat0=    1 NMatS0=      1 NMatT0=    0 NMatD0=    1 NMtDS0=    0 NMtDT0=    0
 Petite list used in FoFCou.
 Keep R1 ints in memory in canonical form, NReq=10436288.
 Requested convergence on RMS density matrix=1.00D-08 within 128 cycles.
 Requested convergence on MAX density matrix=1.00D-06.
 Requested convergence on             energy=1.00D-06.
 No special actions if energy rises.
 SCF Done:  E(RHF) =  -211.143200098     A.U. after   12 cycles
            NFock= 12  Conv=0.39D-08     -V/T= 2.0015
 ExpMin= 1.61D-01 ExpMax= 4.17D+03 ExpMxC= 6.27D+02 IAcc=3 IRadAn=         5 AccDes= 0.00D+00
 HarFok:  IExCor=  205 AccDes= 0.00D+00 IRadAn=         5 IDoV=-2 UseB2=F ITyADJ=14
 ICtDFT= 12500011 ScaDFX=  1.000000  1.000000  1.000000  1.000000
 Range of M.O.s used for correlation:     6    93
 NBasis=    93 NAE=    20 NBE=    20 NFC=     5 NFV=     0
 NROrb=     88 NOA=    15 NOB=    15 NVA=    73 NVB=    73
 Fully direct method using O(ONN) memory.
 JobTyp=1 Pass  1:  I=   6 to  20 NPSUse=  1 ParTrn=F ParDer=F DoDerP=T.
 Spin components of T(2) and E(2):
     alpha-alpha T2 =       0.2790801328D-01 E2=     -0.8405127363D-01
     alpha-beta  T2 =       0.1679168201D+00 E2=     -0.5160463410D+00
     beta-beta   T2 =       0.2790801328D-01 E2=     -0.8405127363D-01
 ANorm=    0.1106224591D+01
 E2 =    -0.6841488883D+00 EUMP2 =    -0.21182734898599D+03
          IDoAtm=11111111111111
          Differentiating once with respect to electric field.
                with respect to dipole field.
          Differentiating once with respect to nuclear coordinates.
 Keep R1 ints in memory in canonical form, NReq=10438744.
          There are     1 degrees of freedom in the 1st order CPHF.  IDoFFX=0 NUNeed=     1.
 LinEq1:  Iter=  0 NonCon=     1 RMS=4.26D-03 Max=4.54D-02 NDo=     1
 AX will form     1 AO Fock derivatives at one time.
 LinEq1:  Iter=  1 NonCon=     1 RMS=1.43D-03 Max=1.40D-02 NDo=     1
 LinEq1:  Iter=  2 NonCon=     1 RMS=2.90D-04 Max=3.43D-03 NDo=     1
 LinEq1:  Iter=  3 NonCon=     1 RMS=5.58D-05 Max=4.08D-04 NDo=     1
 LinEq1:  Iter=  4 NonCon=     1 RMS=1.18D-05 Max=1.55D-04 NDo=     1
 LinEq1:  Iter=  5 NonCon=     1 RMS=4.47D-06 Max=3.98D-05 NDo=     1
 LinEq1:  Iter=  6 NonCon=     1 RMS=1.05D-06 Max=1.56D-05 NDo=     1
 LinEq1:  Iter=  7 NonCon=     1 RMS=1.91D-07 Max=1.83D-06 NDo=     1
 LinEq1:  Iter=  8 NonCon=     1 RMS=6.29D-08 Max=5.75D-07 NDo=     1
 LinEq1:  Iter=  9 NonCon=     1 RMS=1.37D-08 Max=1.24D-07 NDo=     1
 LinEq1:  Iter= 10 NonCon=     1 RMS=3.65D-09 Max=2.96D-08 NDo=     1
 LinEq1:  Iter= 11 NonCon=     1 RMS=6.11D-10 Max=7.96D-09 NDo=     1
 LinEq1:  Iter= 12 NonCon=     1 RMS=1.20D-10 Max=1.50D-09 NDo=     1
 LinEq1:  Iter= 13 NonCon=     0 RMS=1.91D-11 Max=1.76D-10 NDo=     1
 Linear equations converged to 1.000D-10 1.000D-09 after    13 iterations.
 End of Minotr F.D. properties file   721 does not exist.
 End of Minotr F.D. properties file   722 does not exist.
 End of Minotr F.D. properties file   788 does not exist.

 **********************************************************************

            Population analysis using the SCF density.

 **********************************************************************

 Orbital symmetries:
       Occupied  (A) (A) (A) (A) (A) (A) (A) (A) (A) (A) (A) (A)
                 (A) (A) (A) (A) (A) (A) (A) (A)
       Virtual   (A) (A) (A) (A) (A) (A) (A) (A) (A) (A) (A) (A)
                 (A) (A) (A) (A) (A) (A) (A) (A) (A) (A) (A) (A)
                 (A) (A) (A) (A) (A) (A) (A) (A) (A) (A) (A) (A)
                 (A) (A) (A) (A) (A) (A) (A) (A) (A) (A) (A) (A)
                 (A) (A) (A) (A) (A) (A) (A) (A) (A) (A) (A) (A)
                 (A) (A) (A) (A) (A) (A) (A) (A) (A) (A) (A) (A)
                 (A)
 The electronic state is 1-A.
 Alpha  occ. eigenvalues --  -15.54076 -11.24200 -11.24195 -11.21855 -11.21799
 Alpha  occ. eigenvalues --   -1.21663  -1.01921  -0.96899  -0.81410  -0.78334
 Alpha  occ. eigenvalues --   -0.67516  -0.63699  -0.58968  -0.58396  -0.50622
 Alpha  occ. eigenvalues --   -0.49289  -0.47912  -0.47626  -0.45740  -0.37275
 Alpha virt. eigenvalues --    0.21279   0.24725   0.28660   0.29029   0.30117
 Alpha virt. eigenvalues --    0.32558   0.33858   0.33958   0.36392   0.37738
 Alpha virt. eigenvalues --    0.40785   0.41401   0.48517   0.52442   0.72779
 Alpha virt. eigenvalues --    0.76267   0.76616   0.79767   0.80365   0.83842
 Alpha virt. eigenvalues --    0.90478   0.92044   0.92595   0.94963   1.01860
 Alpha virt. eigenvalues --    1.02452   1.09480   1.10988   1.12808   1.13150
 Alpha virt. eigenvalues --    1.15438   1.17173   1.19496   1.20850   1.21106
 Alpha virt. eigenvalues --    1.23722   1.24020   1.24151   1.49539   1.52543
 Alpha virt. eigenvalues --    1.59180   1.59545   1.69288   1.90975   2.00838
 Alpha virt. eigenvalues --    2.08684   2.12260   2.13555   2.19833   2.22442
 Alpha virt. eigenvalues --    2.29045   2.31775   2.35028   2.42288   2.43267
 Alpha virt. eigenvalues --    2.43361   2.51046   2.57266   2.59218   2.71449
 Alpha virt. eigenvalues --    2.73627   2.81719   2.90009   2.95574   2.97825
 Alpha virt. eigenvalues --    2.98905   3.02819   3.24107   4.34967   4.60737
 Alpha virt. eigenvalues --    4.68019   4.86124   5.04389
          Condensed to atoms (all electrons):
               1          2          3          4          5          6
     1  N    7.058662   0.327541   0.294203  -0.033404  -0.047556  -0.084999
     2  H    0.327541   0.433304  -0.042392  -0.005379   0.005680  -0.000687
     3  C    0.294203  -0.042392   4.977886   0.403748   0.406065   0.333688
     4  H   -0.033404  -0.005379   0.403748   0.521240  -0.026325  -0.035555
     5  H   -0.047556   0.005680   0.406065  -0.026325   0.544869  -0.053864
     6  C   -0.084999  -0.000687   0.333688  -0.035555  -0.053864   5.205597
     7  H    0.002637   0.000959  -0.038300  -0.004204   0.003824   0.396024
     8  H    0.004386  -0.000026  -0.032387   0.001335  -0.002463   0.391464
     9  C   -0.085089  -0.000691  -0.061393   0.003840  -0.000390   0.321496
    10  H    0.002649   0.000958   0.003257  -0.000161  -0.000013  -0.038489
    11  H    0.004384  -0.000026   0.002984  -0.000064   0.000166  -0.033459
    12  C    0.294002  -0.042370  -0.094809   0.006117  -0.001884  -0.061284
    13  H   -0.033416  -0.005385   0.006123  -0.000114  -0.000171   0.003829
    14  H   -0.047622   0.005682  -0.001900  -0.000171   0.003456  -0.000382
               7          8          9         10         11         12
     1  N    0.002637   0.004386  -0.085089   0.002649   0.004384   0.294002
     2  H    0.000959  -0.000026  -0.000691   0.000958  -0.000026  -0.042370
     3  C   -0.038300  -0.032387  -0.061393   0.003257   0.002984  -0.094809
     4  H   -0.004204   0.001335   0.003840  -0.000161  -0.000064   0.006117
     5  H    0.003824  -0.002463  -0.000390  -0.000013   0.000166  -0.001884
     6  C    0.396024   0.391464   0.321496  -0.038489  -0.033459  -0.061284
     7  H    0.542616  -0.025836  -0.038527  -0.006280   0.002599   0.003251
     8  H   -0.025836   0.527014  -0.033400   0.002596  -0.003631   0.002974
     9  C   -0.038527  -0.033400   5.205831   0.395992   0.391377   0.333836
    10  H   -0.006280   0.002596   0.395992   0.542443  -0.025801  -0.038327
    11  H    0.002599  -0.003631   0.391377  -0.025801   0.527314  -0.032361
    12  C    0.003251   0.002974   0.333836  -0.038327  -0.032361   4.977646
    13  H   -0.000161  -0.000063  -0.035505  -0.004188   0.001332   0.403827
    14  H   -0.000013   0.000165  -0.053852   0.003822  -0.002460   0.406044
              13         14
     1  N   -0.033416  -0.047622
     2  H   -0.005385   0.005682
     3  C    0.006123  -0.001900
     4  H   -0.000114  -0.000171
     5  H   -0.000171   0.003456
     6  C    0.003829  -0.000382
     7  H   -0.000161  -0.000013
     8  H   -0.000063   0.000165
     9  C   -0.035505  -0.053852
    10  H   -0.004188   0.003822
    11  H    0.001332  -0.002460
    12  C    0.403827   0.406044
    13  H    0.520894  -0.026326
    14  H   -0.026326   0.545162
 Mulliken charges:
               1
     1  N   -0.656379
     2  H    0.322831
     3  C   -0.156772
     4  H    0.169095
     5  H    0.168606
     6  C   -0.343380
     7  H    0.161410
     8  H    0.167872
     9  C   -0.343527
    10  H    0.161542
    11  H    0.167645
    12  C   -0.156662
    13  H    0.169324
    14  H    0.168395
 Sum of Mulliken charges =  -0.00000
 Mulliken charges with hydrogens summed into heavy atoms:
               1
     1  N   -0.333548
     3  C    0.180929
     6  C   -0.014098
     9  C   -0.014340
    12  C    0.181057
 Electronic spatial extent (au):  <R**2>=            390.2955
 Charge=             -0.0000 electrons
 Dipole moment (field-independent basis, Debye):
    X=              0.0108    Y=              1.4000    Z=             -0.6708  Tot=              1.5525
 Quadrupole moment (field-independent basis, Debye-Ang):
   XX=            -31.4430   YY=            -37.4386   ZZ=            -30.3356
   XY=             -0.0423   XZ=              0.0141   YZ=              1.4414
 Traceless Quadrupole moment (field-independent basis, Debye-Ang):
   XX=              1.6294   YY=             -4.3662   ZZ=              2.7368
   XY=             -0.0423   XZ=              0.0141   YZ=              1.4414
 Octapole moment (field-independent basis, Debye-Ang**2):
  XXX=             -0.0557  YYY=              7.4680  ZZZ=             -2.5630  XYY=              0.0925
  XXY=             -2.2856  XXZ=             -1.0006  XZZ=             -0.0165  YZZ=             -2.3218
  YYZ=             -1.4684  XYZ=             -0.0024
 Hexadecapole moment (field-independent basis, Debye-Ang**3):
 XXXX=           -226.6934 YYYY=           -248.7377 ZZZZ=            -65.8087 XXXY=              0.0072
 XXXZ=              0.0625 YYYX=             -0.1840 YYYZ=              5.7507 ZZZX=              0.0341
 ZZZY=              3.2304 XXYY=            -75.0449 XXZZ=            -48.5104 YYZZ=            -45.1589
 XXYZ=              2.0821 YYXZ=              0.0159 ZZXY=              0.0194
 N-N= 1.900136865772D+02 E-N=-8.720763185249D+02  KE= 2.108304137868D+02
 Calling FoFJK, ICntrl=  10002127 FMM=F ISym2X=0 I1Cent= 0 IOpClX= 0 NMat=1 NMatS=1 NMatT=0.
 ***** Axes restored to original set *****
 -------------------------------------------------------------------
 Center     Atomic                   Forces (Hartrees/Bohr)
 Number     Number              X              Y              Z
 -------------------------------------------------------------------
      1        7           0.000067218    0.000324295    0.000355385
      2        1          -0.000147219   -0.000035560   -0.000241089
      3        6           0.000758105    0.000773310    0.000735129
      4        1          -0.000288273   -0.000698691   -0.000271797
      5        1          -0.000308412    0.000033250   -0.000433494
      6        6          -0.000098258    0.000152779    0.000315185
      7        1          -0.000099833   -0.000004959   -0.000060197
      8        1           0.000110722   -0.000045813   -0.000301852
      9        6          -0.000507108   -0.000177978   -0.000275408
     10        1           0.000133008   -0.000094664    0.000103544
     11        1           0.000074374    0.000132703    0.000198827
     12        6           0.000296758   -0.000382461    0.000076681
     13        1           0.000028013    0.000050298   -0.000099903
     14        1          -0.000019094   -0.000026509   -0.000101012
 -------------------------------------------------------------------
 Cartesian Forces:  Max     0.000773310 RMS     0.000306300

 GradGradGradGradGradGradGradGradGradGradGradGradGradGradGradGradGradGrad
 Berny optimization.
 FormGI is forming the generalized inverse of G from B-inverse, IUseBI=4.
 Internal  Forces:  Max     0.000802576 RMS     0.000137397
 Search for a local minimum.
 Step number   1 out of a maximum of   90 on scan point     1 out of     7
 All quantities printed in internal units (Hartrees-Bohrs-Radians)
 Mixed Optimization -- En-DIIS/RFO-DIIS
 Second derivative matrix not updated -- first step.
 ITU=  0
     Eigenvalues ---    0.00565   0.01463   0.02311   0.02408   0.04343
     Eigenvalues ---    0.04575   0.04959   0.05414   0.05521   0.05727
     Eigenvalues ---    0.05918   0.06889   0.06892   0.08232   0.08733
     Eigenvalues ---    0.08798   0.09319   0.11014   0.11400   0.20466
     Eigenvalues ---    0.20554   0.26479   0.26847   0.28012   0.33497
     Eigenvalues ---    0.34133   0.34210   0.34244   0.34272   0.34296
     Eigenvalues ---    0.34322   0.34325   0.34364   0.34392   0.43909
     Eigenvalues --- 1000.000001000.000001000.000001000.000001000.00000
     Eigenvalues --- 1000.000001000.000001000.000001000.000001000.00000
     Eigenvalues --- 1000.000001000.000001000.000001000.000001000.00000
     Eigenvalues --- 1000.000001000.000001000.000001000.000001000.00000
     Eigenvalues --- 1000.000001000.000001000.000001000.000001000.00000
     Eigenvalues --- 1000.000001000.000001000.000001000.000001000.00000
     Eigenvalues --- 1000.000001000.000001000.000001000.000001000.00000
     Eigenvalues --- 1000.000001000.000001000.000001000.000001000.00000
     Eigenvalues --- 1000.000001000.000001000.000001000.000001000.00000
 RFO step:  Lambda=-4.86167069D-06 EMin= 5.65462185D-03
 Linear search not attempted -- first point.
 Iteration  1 RMS(Cart)=  0.00041073 RMS(Int)=  0.00000026
 Iteration  2 RMS(Cart)=  0.00000021 RMS(Int)=  0.00000008
 Iteration  1 RMS(Cart)=  0.00000000 RMS(Int)=  0.00000001
 Variable       Old X    -DE/DX   Delta X   Delta X   Delta X     New X
                                 (Linear)    (Quad)   (Total)
    R1        1.93264  -0.00028   0.00000  -0.00065  -0.00065   1.93199
    R2        2.77684   0.00007   0.00000   0.00023   0.00023   2.77707
    R3        2.77598   0.00035   0.00000   0.00104   0.00104   2.77702
    R4        2.06920  -0.00080   0.00000  -0.00234  -0.00234   2.06686
    R5        2.06977   0.00053   0.00000   0.00155   0.00155   2.07132
    R6        2.92032  -0.00004   0.00000  -0.00015  -0.00015   2.92017
    R7        2.06874  -0.00011   0.00000  -0.00034  -0.00034   2.06840
    R8        2.06673   0.00032   0.00000   0.00092   0.00092   2.06765
    R9        2.92414   0.00015   0.00000   0.00045   0.00045   2.92460
   R10        2.06784   0.00019   0.00000   0.00055   0.00055   2.06839
   R11        2.06833  -0.00024   0.00000  -0.00070  -0.00070   2.06763
   R12        2.92130  -0.00026   0.00000  -0.00096  -0.00096   2.92034
   R13        2.06721  -0.00011   0.00000  -0.00033  -0.00033   2.06688
   R14        2.07106   0.00009   0.00000   0.00026   0.00026   2.07132
    A1        1.88086   0.00002   0.00000   0.00004   0.00004   1.88090
    A2        1.88137  -0.00002   0.00000  -0.00025  -0.00025   1.88112
    A3        1.79287  -0.00003   0.00000   0.00006   0.00006   1.79293
    A4        1.93072   0.00001   0.00000   0.00033   0.00033   1.93105
    A5        1.87788   0.00001   0.00000  -0.00028  -0.00028   1.87760
    A6        1.86683  -0.00005   0.00000  -0.00019  -0.00019   1.86664
    A7        1.87807   0.00000   0.00000   0.00014   0.00014   1.87821
    A8        1.98333   0.00006   0.00000   0.00058   0.00058   1.98391
    A9        1.92473  -0.00005   0.00000  -0.00063  -0.00063   1.92410
   A10        1.92646  -0.00005   0.00000  -0.00029  -0.00029   1.92618
   A11        1.95561   0.00003   0.00000   0.00059   0.00059   1.95620
   A12        1.81501   0.00008   0.00000   0.00038   0.00038   1.81539
   A13        1.86977   0.00001   0.00000  -0.00019  -0.00019   1.86959
   A14        1.93270   0.00000   0.00000   0.00002   0.00002   1.93272
   A15        1.96534  -0.00007   0.00000  -0.00051  -0.00051   1.96484
   A16        1.93307  -0.00001   0.00000  -0.00022  -0.00022   1.93284
   A17        1.96494  -0.00000   0.00000   0.00001   0.00001   1.96495
   A18        1.81527  -0.00001   0.00000  -0.00006  -0.00006   1.81521
   A19        1.87003  -0.00003   0.00000  -0.00042  -0.00042   1.86961
   A20        1.92599   0.00001   0.00000   0.00012   0.00012   1.92611
   A21        1.95559   0.00004   0.00000   0.00059   0.00059   1.95617
   A22        1.86654   0.00003   0.00000   0.00033   0.00033   1.86688
   A23        1.93094   0.00001   0.00000   0.00033   0.00033   1.93127
   A24        1.87764   0.00001   0.00000   0.00005   0.00005   1.87769
   A25        1.98361  -0.00001   0.00000   0.00006   0.00006   1.98367
   A26        1.92455  -0.00006   0.00000  -0.00076  -0.00076   1.92380
   A27        1.87824   0.00001   0.00000  -0.00002  -0.00002   1.87822
    D1       -0.85065  -0.00002   0.00000  -0.00038  -0.00038  -0.85102
    D2       -2.89759  -0.00004   0.00000  -0.00057  -0.00057  -2.89816
    D3        1.31772   0.00004   0.00000   0.00042   0.00042   1.31814
    D4       -2.83442   0.00002   0.00000  -0.00014  -0.00014  -2.83455
    D5        1.40182  -0.00001   0.00000  -0.00033  -0.00033   1.40150
    D6       -0.66605   0.00007   0.00000   0.00066   0.00066  -0.66539
    D7       -1.31775  -0.00002   0.00000  -0.00065  -0.00065  -1.31839
    D8        0.85091  -0.00000   0.00000  -0.00015  -0.00015   0.85077
    D9        2.89805   0.00003   0.00000   0.00004   0.00004   2.89809
   D10        0.66565  -0.00001   0.00000  -0.00067  -0.00067   0.66497
   D11        2.83431   0.00000   0.00000  -0.00017  -0.00017   2.83413
   D12       -1.40174   0.00003   0.00000   0.00002   0.00002  -1.40173
   D13       -1.66449  -0.00003   0.00000  -0.00009  -0.00009  -1.66459
   D14        2.53645  -0.00002   0.00000  -0.00005  -0.00005   2.53639
   D15        0.40902  -0.00001   0.00000   0.00000  -0.00000   0.40902
   D16        0.47131  -0.00000   0.00000   0.00055   0.00055   0.47186
   D17       -1.61094   0.00000   0.00000   0.00059   0.00059  -1.61034
   D18        2.54483   0.00002   0.00000   0.00064   0.00064   2.54547
   D19        2.58157   0.00001   0.00000   0.00067   0.00067   2.58225
   D20        0.49932   0.00001   0.00000   0.00072   0.00072   0.50004
   D21       -1.62810   0.00003   0.00000   0.00077   0.00077  -1.62733
   D22       -2.06931   0.00001   0.00000  -0.00040  -0.00040  -2.06971
   D23        2.12056   0.00005   0.00000   0.00029   0.00029   2.12085
   D24       -0.00031   0.00001   0.00000  -0.00039  -0.00039  -0.00070
   D25       -0.00008  -0.00001   0.00000  -0.00051  -0.00051  -0.00058
   D26       -2.09339   0.00003   0.00000   0.00018   0.00018  -2.09321
   D27        2.06893  -0.00000   0.00000  -0.00050  -0.00050   2.06843
   D28        2.09292  -0.00005   0.00000  -0.00108  -0.00108   2.09185
   D29       -0.00039  -0.00000   0.00000  -0.00039  -0.00039  -0.00078
   D30       -2.12126  -0.00004   0.00000  -0.00107  -0.00107  -2.12233
   D31       -0.40859   0.00002   0.00000   0.00073   0.00073  -0.40786
   D32       -2.54465  -0.00001   0.00000   0.00004   0.00004  -2.54460
   D33        1.62799   0.00002   0.00000   0.00058   0.00058   1.62857
   D34        1.66527   0.00001   0.00000   0.00050   0.00050   1.66576
   D35       -0.47079  -0.00002   0.00000  -0.00019  -0.00019  -0.47098
   D36       -2.58134   0.00001   0.00000   0.00034   0.00034  -2.58099
   D37       -2.53568   0.00001   0.00000   0.00044   0.00044  -2.53524
   D38        1.61145  -0.00002   0.00000  -0.00025  -0.00025   1.61120
   D39       -0.49910   0.00001   0.00000   0.00028   0.00028  -0.49881
         Item               Value     Threshold  Converged?
 Maximum Force            0.000803     0.000450     NO 
 RMS     Force            0.000138     0.000300     YES
 Maximum Displacement     0.001080     0.001800     YES
 RMS     Displacement     0.000411     0.001200     YES
 Predicted change in Energy=-2.430778D-06
 GradGradGradGradGradGradGradGradGradGradGradGradGradGradGradGradGradGrad

                          Input orientation:                          
 ---------------------------------------------------------------------
 Center     Atomic      Atomic             Coordinates (Angstroms)
 Number     Number       Type             X           Y           Z
 ---------------------------------------------------------------------
      1          7           0        0.844061    0.456478    0.923288
      2          1           0        1.371727    0.495358    1.798096
      3          6           0        1.643314    1.125572   -0.112630
      4          1           0        1.999746    2.096650    0.242641
      5          1           0        0.986878    1.307145   -0.971434
      6          6           0        2.778808    0.153155   -0.503750
      7          1           0        3.688629    0.383876    0.059309
      8          1           0        3.031407    0.221773   -1.566133
      9          6           0        2.230547   -1.240123   -0.112160
     10          1           0        2.866028   -1.707559    0.646589
     11          1           0        2.184743   -1.927694   -0.962040
     12          6           0        0.830292   -0.941097    0.469272
     13          1           0        0.542398   -1.609223    1.285973
     14          1           0        0.068422   -1.027312   -0.314021
 ---------------------------------------------------------------------
                    Distance matrix (angstroms):
                    1          2          3          4          5
     1  N    0.000000
     2  H    1.022365   0.000000
     3  C    1.469564   2.030222   0.000000
     4  H    2.118738   2.319048   1.093734   0.000000
     5  H    2.081826   2.911597   1.096093   1.767256   0.000000
     6  C    2.423157   2.719463   1.545289   2.222884   2.182071
     7  H    2.973768   2.898938   2.182427   2.412370   3.035508
     8  H    3.322166   3.761306   2.203707   2.801990   2.389936
     9  C    2.423418   2.720027   2.437490   3.363511   2.962033
    10  H    2.974554   2.900301   3.177747   3.922451   3.903543
    11  H    3.322073   3.761718   3.215132   4.204857   3.449515
    12  C    1.469536   2.030352   2.295808   3.262957   2.674835
    13  H    2.118883   2.319336   3.263006   4.116540   3.714654
    14  H    2.081870   2.911729   2.675023   3.714703   2.593346
                    6          7          8          9         10
     6  C    0.000000
     7  H    1.094551   0.000000
     8  H    1.094153   1.760761   0.000000
     9  C    1.547629   2.189242   2.211912   0.000000
    10  H    2.189325   2.322858   2.940376   1.094547   0.000000
    11  H    2.211984   2.940779   2.387881   1.094142   1.760766
    12  C    2.437391   3.177060   3.215594   1.545378   2.182459
    13  H    3.363126   3.921214   4.205023   2.222804   2.411999
    14  H    2.962379   3.903424   3.450692   2.181930   3.035146
                   11         12         13         14
    11  H    0.000000
    12  C    2.203761   0.000000
    13  H    2.802193   1.093745   0.000000
    14  H    2.389441   1.096096   1.767274   0.000000
 Stoichiometry    C4H9N
 Framework group  C1[X(C4H9N)]
 Deg. of freedom    36
 Full point group                 C1      NOp   1
 Largest Abelian subgroup         C1      NOp   1
 Largest concise Abelian subgroup C1      NOp   1
                         Standard orientation:                         
 ---------------------------------------------------------------------
 Center     Atomic      Atomic             Coordinates (Angstroms)
 Number     Number       Type             X           Y           Z
 ---------------------------------------------------------------------
      1          7           0        0.003242   -1.268169   -0.215868
      2          1           0        0.003634   -1.308399   -1.237441
      3          6           0        1.149028   -0.447826    0.201061
      4          1           0        2.060258   -0.769523   -0.311215
      5          1           0        1.297930   -0.608604    1.275025
      6          6           0        0.771232    1.025538   -0.071676
      7          1           0        1.157755    1.343919   -1.044956
      8          1           0        1.189902    1.703158    0.678469
      9          6           0       -0.776393    1.021854   -0.071240
     10          1           0       -1.165098    1.338943   -1.044070
     11          1           0       -1.197971    1.696852    0.679624
     12          6           0       -1.146772   -0.453632    0.200706
     13          1           0       -2.056270   -0.779475   -0.312048
     14          1           0       -1.295407   -0.615282    1.274579
 ---------------------------------------------------------------------
 Rotational constants (GHZ):           6.8850335           6.6919819           3.9131398
 Standard basis: 6-31G(d) (6D, 7F)
 There are    93 symmetry adapted cartesian basis functions of A   symmetry.
 There are    93 symmetry adapted basis functions of A   symmetry.
    93 basis functions,   176 primitive gaussians,    93 cartesian basis functions
    20 alpha electrons       20 beta electrons
       nuclear repulsion energy       190.0070395972 Hartrees.
 NAtoms=   14 NActive=   14 NUniq=   14 SFac= 1.00D+00 NAtFMM=   60 NAOKFM=F Big=F
 Integral buffers will be    131072 words long.
 Raffenetti 1 integral format.
 Two-electron integral symmetry is turned on.
 One-electron integrals computed using PRISM.
 NBasis=    93 RedAO= T EigKep=  3.15D-03  NBF=    93
 NBsUse=    93 1.00D-06 EigRej= -1.00D+00 NBFU=    93
 Initial guess from the checkpoint file:  "PRLD.scan4.pos.chk"
 B after Tr=    -0.000000    0.000000   -0.000000
         Rot=    0.999987    0.000085   -0.000014   -0.005026 Ang=   0.58 deg.
 Keep R1 ints in memory in canonical form, NReq=10436318.
 Requested convergence on RMS density matrix=1.00D-08 within 128 cycles.
 Requested convergence on MAX density matrix=1.00D-06.
 Requested convergence on             energy=1.00D-06.
 No special actions if energy rises.
 SCF Done:  E(RHF) =  -211.143210240     A.U. after    7 cycles
            NFock=  7  Conv=0.90D-08     -V/T= 2.0015
 ExpMin= 1.61D-01 ExpMax= 4.17D+03 ExpMxC= 6.27D+02 IAcc=3 IRadAn=         5 AccDes= 0.00D+00
 HarFok:  IExCor=  205 AccDes= 0.00D+00 IRadAn=         5 IDoV=-2 UseB2=F ITyADJ=14
 ICtDFT= 12500011 ScaDFX=  1.000000  1.000000  1.000000  1.000000
 Range of M.O.s used for correlation:     6    93
 NBasis=    93 NAE=    20 NBE=    20 NFC=     5 NFV=     0
 NROrb=     88 NOA=    15 NOB=    15 NVA=    73 NVB=    73
 Fully direct method using O(ONN) memory.
 JobTyp=1 Pass  1:  I=   6 to  20 NPSUse=  1 ParTrn=F ParDer=F DoDerP=T.
 Spin components of T(2) and E(2):
     alpha-alpha T2 =       0.2790767496D-01 E2=     -0.8404935690D-01
     alpha-beta  T2 =       0.1679156699D+00 E2=     -0.5160424671D+00
     beta-beta   T2 =       0.2790767496D-01 E2=     -0.8404935690D-01
 ANorm=    0.1106223766D+01
 E2 =    -0.6841411809D+00 EUMP2 =    -0.21182735142103D+03
          IDoAtm=11111111111111
          Differentiating once with respect to electric field.
                with respect to dipole field.
          Differentiating once with respect to nuclear coordinates.
 Keep R1 ints in memory in canonical form, NReq=10438744.
          There are     1 degrees of freedom in the 1st order CPHF.  IDoFFX=0 NUNeed=     1.
 LinEq1:  Iter=  0 NonCon=     1 RMS=4.26D-03 Max=4.53D-02 NDo=     1
 AX will form     1 AO Fock derivatives at one time.
 LinEq1:  Iter=  1 NonCon=     1 RMS=1.43D-03 Max=1.40D-02 NDo=     1
 LinEq1:  Iter=  2 NonCon=     1 RMS=2.90D-04 Max=3.42D-03 NDo=     1
 LinEq1:  Iter=  3 NonCon=     1 RMS=5.59D-05 Max=4.10D-04 NDo=     1
 LinEq1:  Iter=  4 NonCon=     1 RMS=1.19D-05 Max=1.55D-04 NDo=     1
 LinEq1:  Iter=  5 NonCon=     1 RMS=4.50D-06 Max=4.00D-05 NDo=     1
 LinEq1:  Iter=  6 NonCon=     1 RMS=1.05D-06 Max=1.55D-05 NDo=     1
 LinEq1:  Iter=  7 NonCon=     1 RMS=1.92D-07 Max=1.83D-06 NDo=     1
 LinEq1:  Iter=  8 NonCon=     1 RMS=6.32D-08 Max=5.78D-07 NDo=     1
 LinEq1:  Iter=  9 NonCon=     1 RMS=1.37D-08 Max=1.25D-07 NDo=     1
 LinEq1:  Iter= 10 NonCon=     1 RMS=3.65D-09 Max=2.96D-08 NDo=     1
 LinEq1:  Iter= 11 NonCon=     1 RMS=6.11D-10 Max=7.96D-09 NDo=     1
 LinEq1:  Iter= 12 NonCon=     1 RMS=1.20D-10 Max=1.50D-09 NDo=     1
 LinEq1:  Iter= 13 NonCon=     0 RMS=1.90D-11 Max=1.76D-10 NDo=     1
 Linear equations converged to 1.000D-10 1.000D-09 after    13 iterations.
 End of Minotr F.D. properties file   721 does not exist.
 End of Minotr F.D. properties file   722 does not exist.
 End of Minotr F.D. properties file   788 does not exist.
 Calling FoFJK, ICntrl=  10002127 FMM=F ISym2X=0 I1Cent= 0 IOpClX= 0 NMat=1 NMatS=1 NMatT=0.
 ***** Axes restored to original set *****
 -------------------------------------------------------------------
 Center     Atomic                   Forces (Hartrees/Bohr)
 Number     Number              X              Y              Z
 -------------------------------------------------------------------
      1        7          -0.000047579    0.000030568    0.000030051
      2        1           0.000006462   -0.000017057    0.000010645
      3        6           0.000048376   -0.000044440   -0.000035182
      4        1           0.000000868   -0.000003431    0.000011039
      5        1          -0.000012315   -0.000011648   -0.000001369
      6        6          -0.000015669    0.000059433   -0.000029777
      7        1           0.000015535   -0.000008846    0.000004700
      8        1           0.000010401   -0.000007131    0.000005493
      9        6          -0.000085721    0.000017221    0.000067134
     10        1           0.000035448    0.000001898   -0.000009316
     11        1           0.000009880    0.000008536   -0.000004597
     12        6           0.000065483   -0.000089179   -0.000074000
     13        1          -0.000010175    0.000033322    0.000014294
     14        1          -0.000020993    0.000030754    0.000010885
 -------------------------------------------------------------------
 Cartesian Forces:  Max     0.000089179 RMS     0.000034520

 GradGradGradGradGradGradGradGradGradGradGradGradGradGradGradGradGradGrad
 Berny optimization.
 Using GEDIIS/GDIIS optimizer.
 FormGI is forming the generalized inverse of G from B-inverse, IUseBI=4.
 Internal  Forces:  Max     0.000037806 RMS     0.000013203
 Search for a local minimum.
 Step number   2 out of a maximum of   90 on scan point     1 out of     7
 All quantities printed in internal units (Hartrees-Bohrs-Radians)
 Mixed Optimization -- En-DIIS/RFO-DIIS
 Swapping is turned off.
 Update second derivatives using D2CorX and points    1    2
 DE= -2.44D-06 DEPred=-2.43D-06 R= 1.00D+00
 TightC=F SS=  1.41D+00  RLast= 5.06D-03 DXNew= 5.0454D-01 1.5170D-02
 Trust test= 1.00D+00 RLast= 5.06D-03 DXMaxT set to 3.00D-01
 ITU=  1  0
     Eigenvalues ---    0.00567   0.01455   0.02312   0.02410   0.04342
     Eigenvalues ---    0.04615   0.04965   0.05370   0.05513   0.05723
     Eigenvalues ---    0.05927   0.06790   0.06895   0.08241   0.08772
     Eigenvalues ---    0.08928   0.09365   0.11007   0.11402   0.20424
     Eigenvalues ---    0.20703   0.26440   0.26846   0.27375   0.33550
     Eigenvalues ---    0.33722   0.34138   0.34224   0.34281   0.34295
     Eigenvalues ---    0.34324   0.34361   0.34372   0.35006   0.44082
     Eigenvalues --- 1000.000001000.000001000.000001000.000001000.00000
     Eigenvalues --- 1000.000001000.000001000.000001000.000001000.00000
     Eigenvalues --- 1000.000001000.000001000.000001000.000001000.00000
     Eigenvalues --- 1000.000001000.000001000.000001000.000001000.00000
     Eigenvalues --- 1000.000001000.000001000.000001000.000001000.00000
     Eigenvalues --- 1000.000001000.000001000.000001000.000001000.00000
     Eigenvalues --- 1000.000001000.000001000.000001000.000001000.00000
     Eigenvalues --- 1000.000001000.000001000.000001000.000001000.00000
     Eigenvalues --- 1000.000001000.000001000.000001000.000001000.00000
 En-DIIS/RFO-DIIS/Sim-DIIS IScMMF=       -3 using points:     2    1
 RFO step:  Lambda=-1.31000487D-07.
 DidBck=F Rises=F RFO-DIIS coefs:    0.99506    0.00494
 Iteration  1 RMS(Cart)=  0.00016829 RMS(Int)=  0.00000003
 Iteration  2 RMS(Cart)=  0.00000002 RMS(Int)=  0.00000002
 Iteration  1 RMS(Cart)=  0.00000000 RMS(Int)=  0.00000001
 Variable       Old X    -DE/DX   Delta X   Delta X   Delta X     New X
                                 (Linear)    (Quad)   (Total)
    R1        1.93199   0.00001   0.00000   0.00001   0.00001   1.93200
    R2        2.77707   0.00002  -0.00000   0.00008   0.00008   2.77715
    R3        2.77702   0.00001  -0.00001   0.00005   0.00004   2.77706
    R4        2.06686   0.00000   0.00001  -0.00007  -0.00006   2.06680
    R5        2.07132   0.00001  -0.00001   0.00007   0.00006   2.07138
    R6        2.92017  -0.00004   0.00000  -0.00015  -0.00015   2.92003
    R7        2.06840   0.00001   0.00000   0.00003   0.00003   2.06843
    R8        2.06765  -0.00000  -0.00000   0.00002   0.00001   2.06767
    R9        2.92460   0.00001  -0.00000   0.00005   0.00005   2.92464
   R10        2.06839   0.00001  -0.00000   0.00006   0.00005   2.06845
   R11        2.06763  -0.00000   0.00000  -0.00003  -0.00003   2.06760
   R12        2.92034  -0.00003   0.00000  -0.00015  -0.00014   2.92020
   R13        2.06688  -0.00001   0.00000  -0.00003  -0.00003   2.06685
   R14        2.07132   0.00000  -0.00000   0.00002   0.00002   2.07134
    A1        1.88090   0.00001  -0.00000   0.00008   0.00008   1.88098
    A2        1.88112  -0.00000   0.00000  -0.00014  -0.00014   1.88098
    A3        1.79293  -0.00002  -0.00000  -0.00014  -0.00014   1.79279
    A4        1.93105  -0.00001  -0.00000  -0.00008  -0.00008   1.93096
    A5        1.87760  -0.00001   0.00000  -0.00013  -0.00012   1.87748
    A6        1.86664   0.00003   0.00000   0.00010   0.00010   1.86674
    A7        1.87821   0.00001  -0.00000   0.00010   0.00010   1.87831
    A8        1.98391  -0.00001  -0.00000  -0.00000  -0.00000   1.98390
    A9        1.92410   0.00000   0.00000  -0.00001  -0.00000   1.92410
   A10        1.92618   0.00001   0.00000   0.00009   0.00009   1.92627
   A11        1.95620   0.00001  -0.00000   0.00017   0.00017   1.95637
   A12        1.81539  -0.00002  -0.00000  -0.00013  -0.00013   1.81526
   A13        1.86959  -0.00001   0.00000  -0.00004  -0.00004   1.86955
   A14        1.93272  -0.00000  -0.00000  -0.00009  -0.00009   1.93264
   A15        1.96484   0.00000   0.00000  -0.00000  -0.00000   1.96484
   A16        1.93284  -0.00002   0.00000  -0.00019  -0.00019   1.93265
   A17        1.96495  -0.00002  -0.00000  -0.00018  -0.00018   1.96477
   A18        1.81521   0.00002   0.00000   0.00009   0.00009   1.81530
   A19        1.86961   0.00000   0.00000  -0.00006  -0.00006   1.86955
   A20        1.92611   0.00002  -0.00000   0.00032   0.00031   1.92643
   A21        1.95617  -0.00000  -0.00000   0.00004   0.00004   1.95622
   A22        1.86688  -0.00000  -0.00000  -0.00007  -0.00007   1.86680
   A23        1.93127  -0.00003  -0.00000  -0.00030  -0.00030   1.93097
   A24        1.87769  -0.00002  -0.00000  -0.00025  -0.00025   1.87744
   A25        1.98367   0.00002  -0.00000   0.00021   0.00021   1.98387
   A26        1.92380   0.00002   0.00000   0.00030   0.00030   1.92410
   A27        1.87822  -0.00000   0.00000   0.00009   0.00009   1.87831
    D1       -0.85102  -0.00001   0.00000  -0.00035  -0.00035  -0.85137
    D2       -2.89816  -0.00001   0.00000  -0.00036  -0.00036  -2.89851
    D3        1.31814  -0.00001  -0.00000  -0.00034  -0.00034   1.31780
    D4       -2.83455   0.00000   0.00000  -0.00016  -0.00016  -2.83472
    D5        1.40150   0.00000   0.00000  -0.00017  -0.00017   1.40133
    D6       -0.66539  -0.00000  -0.00000  -0.00015  -0.00015  -0.66555
    D7       -1.31839  -0.00000   0.00000   0.00022   0.00022  -1.31817
    D8        0.85077   0.00001   0.00000   0.00024   0.00024   0.85101
    D9        2.89809  -0.00002  -0.00000   0.00004   0.00004   2.89812
   D10        0.66497  -0.00000   0.00000   0.00019   0.00020   0.66517
   D11        2.83413   0.00001   0.00000   0.00022   0.00022   2.83435
   D12       -1.40173  -0.00002  -0.00000   0.00001   0.00001  -1.40172
   D13       -1.66459   0.00001   0.00000   0.00013   0.00013  -1.66445
   D14        2.53639  -0.00000   0.00000   0.00001   0.00001   2.53640
   D15        0.40902  -0.00000   0.00000   0.00000   0.00000   0.40902
   D16        0.47186   0.00000  -0.00000   0.00010   0.00010   0.47196
   D17       -1.61034  -0.00001  -0.00000  -0.00003  -0.00003  -1.61037
   D18        2.54547  -0.00000  -0.00000  -0.00003  -0.00004   2.54544
   D19        2.58225   0.00001  -0.00000   0.00023   0.00023   2.58247
   D20        0.50004  -0.00000  -0.00000   0.00010   0.00010   0.50014
   D21       -1.62733   0.00000  -0.00000   0.00010   0.00009  -1.62724
   D22       -2.06971  -0.00002   0.00000  -0.00017  -0.00016  -2.06987
   D23        2.12085   0.00001  -0.00000   0.00017   0.00017   2.12102
   D24       -0.00070   0.00001   0.00000   0.00016   0.00016  -0.00053
   D25       -0.00058  -0.00001   0.00000  -0.00018  -0.00018  -0.00076
   D26       -2.09321   0.00001  -0.00000   0.00016   0.00016  -2.09305
   D27        2.06843   0.00001   0.00000   0.00015   0.00015   2.06858
   D28        2.09185  -0.00002   0.00001  -0.00029  -0.00028   2.09156
   D29       -0.00078   0.00000   0.00000   0.00005   0.00005  -0.00073
   D30       -2.12233   0.00000   0.00001   0.00004   0.00004  -2.12229
   D31       -0.40786  -0.00001  -0.00000  -0.00026  -0.00027  -0.40812
   D32       -2.54460   0.00001  -0.00000   0.00004   0.00004  -2.54457
   D33        1.62857  -0.00002  -0.00000  -0.00044  -0.00045   1.62812
   D34        1.66576  -0.00001  -0.00000  -0.00028  -0.00028   1.66548
   D35       -0.47098   0.00001   0.00000   0.00002   0.00002  -0.47096
   D36       -2.58099  -0.00002  -0.00000  -0.00046  -0.00047  -2.58146
   D37       -2.53524  -0.00000  -0.00000  -0.00012  -0.00013  -2.53537
   D38        1.61120   0.00002   0.00000   0.00018   0.00018   1.61138
   D39       -0.49881  -0.00001  -0.00000  -0.00031  -0.00031  -0.49912
         Item               Value     Threshold  Converged?
 Maximum Force            0.000038     0.000450     YES
 RMS     Force            0.000013     0.000300     YES
 Maximum Displacement     0.000682     0.001800     YES
 RMS     Displacement     0.000168     0.001200     YES
 Predicted change in Energy=-6.550414D-08
 Optimization completed.
    -- Stationary point found.
                           ----------------------------
                           !   Optimized Parameters   !
                           ! (Angstroms and Degrees)  !
 --------------------------                            --------------------------
 ! Name  Definition              Value          Derivative Info.                !
 --------------------------------------------------------------------------------
 ! R1    R(1,2)                  1.0224         -DE/DX =    0.0                 !
 ! R2    R(1,3)                  1.4696         -DE/DX =    0.0                 !
 ! R3    R(1,12)                 1.4695         -DE/DX =    0.0                 !
 ! R4    R(3,4)                  1.0937         -DE/DX =    0.0                 !
 ! R5    R(3,5)                  1.0961         -DE/DX =    0.0                 !
 ! R6    R(3,6)                  1.5453         -DE/DX =    0.0                 !
 ! R7    R(6,7)                  1.0946         -DE/DX =    0.0                 !
 ! R8    R(6,8)                  1.0942         -DE/DX =    0.0                 !
 ! R9    R(6,9)                  1.5476         -DE/DX =    0.0                 !
 ! R10   R(9,10)                 1.0945         -DE/DX =    0.0                 !
 ! R11   R(9,11)                 1.0941         -DE/DX =    0.0                 !
 ! R12   R(9,12)                 1.5454         -DE/DX =    0.0                 !
 ! R13   R(12,13)                1.0937         -DE/DX =    0.0                 !
 ! R14   R(12,14)                1.0961         -DE/DX =    0.0                 !
 ! A1    A(2,1,3)              107.7676         -DE/DX =    0.0                 !
 ! A2    A(2,1,12)             107.7801         -DE/DX =    0.0                 !
 ! A3    A(3,1,12)             102.7276         -DE/DX =    0.0                 !
 ! A4    A(1,3,4)              110.6408         -DE/DX =    0.0                 !
 ! A5    A(1,3,5)              107.5788         -DE/DX =    0.0                 !
 ! A6    A(1,3,6)              106.9507         -DE/DX =    0.0                 !
 ! A7    A(4,3,5)              107.6135         -DE/DX =    0.0                 !
 ! A8    A(4,3,6)              113.6694         -DE/DX =    0.0                 !
 ! A9    A(5,3,6)              110.2429         -DE/DX =    0.0                 !
 ! A10   A(3,6,7)              110.3617         -DE/DX =    0.0                 !
 ! A11   A(3,6,8)              112.0818         -DE/DX =    0.0                 !
 ! A12   A(3,6,9)              104.0142         -DE/DX =    0.0                 !
 ! A13   A(7,6,8)              107.1195         -DE/DX =    0.0                 !
 ! A14   A(7,6,9)              110.7368         -DE/DX =    0.0                 !
 ! A15   A(8,6,9)              112.5769         -DE/DX =    0.0                 !
 ! A16   A(6,9,10)             110.7436         -DE/DX =    0.0                 !
 ! A17   A(6,9,11)             112.5834         -DE/DX =    0.0                 !
 ! A18   A(6,9,12)             104.004          -DE/DX =    0.0                 !
 ! A19   A(10,9,11)            107.121          -DE/DX =    0.0                 !
 ! A20   A(10,9,12)            110.3582         -DE/DX =    0.0                 !
 ! A21   A(11,9,12)            112.0806         -DE/DX =    0.0                 !
 ! A22   A(1,12,9)             106.9641         -DE/DX =    0.0                 !
 ! A23   A(1,12,13)            110.6537         -DE/DX =    0.0                 !
 ! A24   A(1,12,14)            107.5839         -DE/DX =    0.0                 !
 ! A25   A(9,12,13)            113.6556         -DE/DX =    0.0                 !
 ! A26   A(9,12,14)            110.2254         -DE/DX =    0.0                 !
 ! A27   A(13,12,14)           107.6141         -DE/DX =    0.0                 !
 ! D1    D(2,1,3,4)            -48.7601         -DE/DX =    0.0                 !
 ! D2    D(2,1,3,5)           -166.0523         -DE/DX =    0.0                 !
 ! D3    D(2,1,3,6)             75.5236         -DE/DX =    0.0                 !
 ! D4    D(12,1,3,4)          -162.4078         -DE/DX =    0.0                 !
 ! D5    D(12,1,3,5)            80.3            -DE/DX =    0.0                 !
 ! D6    D(12,1,3,6)           -38.1242         -DE/DX =    0.0                 !
 ! D7    D(2,1,12,9)           -75.5384         -DE/DX =    0.0                 !
 ! D8    D(2,1,12,13)           48.7453         -DE/DX =    0.0                 !
 ! D9    D(2,1,12,14)          166.0483         -DE/DX =    0.0                 !
 ! D10   D(3,1,12,9)            38.1003         -DE/DX =    0.0                 !
 ! D11   D(3,1,12,13)          162.3839         -DE/DX =    0.0                 !
 ! D12   D(3,1,12,14)          -80.3131         -DE/DX =    0.0                 !
 ! D13   D(1,3,6,7)            -95.3738         -DE/DX =    0.0                 !
 ! D14   D(1,3,6,8)            145.3247         -DE/DX =    0.0                 !
 ! D15   D(1,3,6,9)             23.4353         -DE/DX =    0.0                 !
 ! D16   D(4,3,6,7)             27.0356         -DE/DX =    0.0                 !
 ! D17   D(4,3,6,8)            -92.2659         -DE/DX =    0.0                 !
 ! D18   D(4,3,6,9)            145.8447         -DE/DX =    0.0                 !
 ! D19   D(5,3,6,7)            147.9518         -DE/DX =    0.0                 !
 ! D20   D(5,3,6,8)             28.6503         -DE/DX =    0.0                 !
 ! D21   D(5,3,6,9)            -93.239          -DE/DX =    0.0                 !
 ! D22   D(3,6,9,10)          -118.5856         -DE/DX =    0.0                 !
 ! D23   D(3,6,9,11)           121.5159         -DE/DX =    0.0                 !
 ! D24   D(3,6,9,12)            -0.04           -DE/DX =    0.0                 !
 ! D25   D(7,6,9,10)            -0.0335         -DE/DX =    0.0                 !
 ! D26   D(7,6,9,11)          -119.9319         -DE/DX =    0.0                 !
 ! D27   D(7,6,9,12)           118.5121         -DE/DX =    0.0                 !
 ! D28   D(8,6,9,10)           119.854          -DE/DX =    0.0                 !
 ! D29   D(8,6,9,11)            -0.0445         -DE/DX =    0.0                 !
 ! D30   D(8,6,9,12)          -121.6004         -DE/DX =    0.0                 !
 ! D31   D(6,9,12,1)           -23.3685         -DE/DX =    0.0                 !
 ! D32   D(6,9,12,13)         -145.795          -DE/DX =    0.0                 !
 ! D33   D(6,9,12,14)           93.3103         -DE/DX =    0.0                 !
 ! D34   D(10,9,12,1)           95.4412         -DE/DX =    0.0                 !
 ! D35   D(10,9,12,13)         -26.9853         -DE/DX =    0.0                 !
 ! D36   D(10,9,12,14)        -147.88           -DE/DX =    0.0                 !
 ! D37   D(11,9,12,1)         -145.2586         -DE/DX =    0.0                 !
 ! D38   D(11,9,12,13)          92.3149         -DE/DX =    0.0                 !
 ! D39   D(11,9,12,14)         -28.5798         -DE/DX =    0.0                 !
 --------------------------------------------------------------------------------
 Iteration  1 RMS(Cart)=  0.01012143 RMS(Int)=  0.02647463
 Iteration  2 RMS(Cart)=  0.00210897 RMS(Int)=  0.02631690
 Iteration  3 RMS(Cart)=  0.00042366 RMS(Int)=  0.02630244
 Iteration  4 RMS(Cart)=  0.00008547 RMS(Int)=  0.02630022
 Iteration  5 RMS(Cart)=  0.00001726 RMS(Int)=  0.02629980
 Iteration  6 RMS(Cart)=  0.00000349 RMS(Int)=  0.02629972
 Iteration  7 RMS(Cart)=  0.00000070 RMS(Int)=  0.02629970
 Iteration  1 RMS(Cart)=  0.01029268 RMS(Int)=  0.02145072
 Iteration  2 RMS(Cart)=  0.00912466 RMS(Int)=  0.02284403
 Iteration  3 RMS(Cart)=  0.00742600 RMS(Int)=  0.02607947
 Iteration  4 RMS(Cart)=  0.00601772 RMS(Int)=  0.02962889
 Iteration  5 RMS(Cart)=  0.00485904 RMS(Int)=  0.03289427
 Iteration  6 RMS(Cart)=  0.00391189 RMS(Int)=  0.03570485
 Iteration  7 RMS(Cart)=  0.00314181 RMS(Int)=  0.03805024
 Iteration  8 RMS(Cart)=  0.00251844 RMS(Int)=  0.03997535
 Iteration  9 RMS(Cart)=  0.00201560 RMS(Int)=  0.04154020
 Iteration 10 RMS(Cart)=  0.00161114 RMS(Int)=  0.04280437
 Iteration 11 RMS(Cart)=  0.00128655 RMS(Int)=  0.04382144
 Iteration 12 RMS(Cart)=  0.00102653 RMS(Int)=  0.04463737
 Iteration 13 RMS(Cart)=  0.00081854 RMS(Int)=  0.04529058
 Iteration 14 RMS(Cart)=  0.00065236 RMS(Int)=  0.04581274
 Iteration 15 RMS(Cart)=  0.00051971 RMS(Int)=  0.04622967
 Iteration 16 RMS(Cart)=  0.00041389 RMS(Int)=  0.04656229
 Iteration 17 RMS(Cart)=  0.00032954 RMS(Int)=  0.04682747
 Iteration 18 RMS(Cart)=  0.00026232 RMS(Int)=  0.04703879
 Iteration 19 RMS(Cart)=  0.00020878 RMS(Int)=  0.04720711
 Iteration 20 RMS(Cart)=  0.00016615 RMS(Int)=  0.04734115
 Iteration 21 RMS(Cart)=  0.00013221 RMS(Int)=  0.04744786
 Iteration 22 RMS(Cart)=  0.00010519 RMS(Int)=  0.04753280
 Iteration 23 RMS(Cart)=  0.00008369 RMS(Int)=  0.04760039
 Iteration 24 RMS(Cart)=  0.00006658 RMS(Int)=  0.04765418
 Iteration 25 RMS(Cart)=  0.00005297 RMS(Int)=  0.04769698
 Iteration 26 RMS(Cart)=  0.00004213 RMS(Int)=  0.04773103
 Iteration 27 RMS(Cart)=  0.00003352 RMS(Int)=  0.04775813
 Iteration 28 RMS(Cart)=  0.00002666 RMS(Int)=  0.04777968
 Iteration 29 RMS(Cart)=  0.00002121 RMS(Int)=  0.04779682
 Iteration 30 RMS(Cart)=  0.00001687 RMS(Int)=  0.04781046
 Iteration 31 RMS(Cart)=  0.00001342 RMS(Int)=  0.04782131
 Iteration 32 RMS(Cart)=  0.00001067 RMS(Int)=  0.04782994
 Iteration 33 RMS(Cart)=  0.00000849 RMS(Int)=  0.04783680
 Iteration 34 RMS(Cart)=  0.00000675 RMS(Int)=  0.04784226
 Iteration 35 RMS(Cart)=  0.00000537 RMS(Int)=  0.04784661
 Iteration 36 RMS(Cart)=  0.00000427 RMS(Int)=  0.04785006
 Iteration 37 RMS(Cart)=  0.00000340 RMS(Int)=  0.04785281
 Iteration 38 RMS(Cart)=  0.00000270 RMS(Int)=  0.04785500
 Iteration 39 RMS(Cart)=  0.00000215 RMS(Int)=  0.04785673
 Iteration 40 RMS(Cart)=  0.00000171 RMS(Int)=  0.04785812
 Iteration 41 RMS(Cart)=  0.00000136 RMS(Int)=  0.04785922
 Iteration 42 RMS(Cart)=  0.00000108 RMS(Int)=  0.04786009
 Iteration 43 RMS(Cart)=  0.00000086 RMS(Int)=  0.04786079
 GradGradGradGradGradGradGradGradGradGradGradGradGradGradGradGradGradGrad

                          Input orientation:                          
 ---------------------------------------------------------------------
 Center     Atomic      Atomic             Coordinates (Angstroms)
 Number     Number       Type             X           Y           Z
 ---------------------------------------------------------------------
      1          7           0        0.879378    0.501762    0.988184
      2          1           0        1.426066    0.598589    1.846836
      3          6           0        1.593639    1.059553   -0.149543
      4          1           0        1.943839    2.041256    0.181900
      5          1           0        0.944615    1.213429   -1.019396
      6          6           0        2.797974    0.144201   -0.425788
      7          1           0        3.696768    0.411357    0.138989
      8          1           0        3.058655    0.202836   -1.486829
      9          6           0        2.221969   -1.244948   -0.169101
     10          1           0        2.820723   -1.758695    0.589785
     11          1           0        2.198939   -1.894111   -1.049660
     12          6           0        0.848126   -0.918515    0.465623
     13          1           0        0.589098   -1.630344    1.254739
     14          1           0        0.047210   -0.939369   -0.282739
 ---------------------------------------------------------------------
                    Distance matrix (angstroms):
                    1          2          3          4          5
     1  N    0.000000
     2  H    1.022511   0.000000
     3  C    1.454552   2.055748   0.000000
     4  H    2.037943   2.263048   1.093725   0.000000
     5  H    2.130987   2.970709   1.096155   1.768293   0.000000
     6  C    2.410015   2.693217   1.537726   2.167406   2.220486
     7  H    2.943976   2.847435   2.219586   2.393987   3.091848
     8  H    3.311237   3.733000   2.160687   2.721628   2.389342
     9  C    2.488545   2.845364   2.388704   3.316579   2.897975
    10  H    3.006195   3.013641   3.161465   3.921087   3.865588
    11  H    3.410902   3.898792   3.146542   4.131456   3.351276
    12  C    1.513681   2.131518   2.201583   3.168805   2.599957
    13  H    2.168223   2.453414   3.196350   4.057949   3.658569
    14  H    2.093946   2.966758   2.530786   3.563315   2.445923
                    6          7          8          9         10
     6  C    0.000000
     7  H    1.094613   0.000000
     8  H    1.094167   1.758964   0.000000
     9  C    1.525584   2.239040   2.128974   0.000000
    10  H    2.157063   2.383234   2.866451   1.094691   0.000000
    11  H    2.214221   2.995257   2.308120   1.094224   1.758616
    12  C    2.392882   3.160698   3.155302   1.548185   2.147663
    13  H    3.294285   3.882146   4.120128   2.200481   2.332120
    14  H    2.959948   3.914281   3.438497   2.199061   3.020756
                   11         12         13         14
    11  H    0.000000
    12  C    2.252235   0.000000
    13  H    2.823369   1.093847   0.000000
    14  H    2.475810   1.096334   1.770572   0.000000
 Stoichiometry    C4H9N
 Framework group  C1[X(C4H9N)]
 Deg. of freedom    36
 Full point group                 C1      NOp   1
 Largest Abelian subgroup         C1      NOp   1
 Largest concise Abelian subgroup C1      NOp   1
                         Standard orientation:                         
 ---------------------------------------------------------------------
 Center     Atomic      Atomic             Coordinates (Angstroms)
 Number     Number       Type             X           Y           Z
 ---------------------------------------------------------------------
      1          7           0        1.229983   -0.408209   -0.262710
      2          1           0        1.312028   -0.355042   -1.280536
      3          6           0        0.781739    0.860154    0.290511
      4          1           0        1.412296    1.619880   -0.180073
      5          1           0        0.935066    0.924200    1.373999
      6          6           0       -0.680262    1.056375   -0.143830
      7          1           0       -0.792185    1.555864   -1.111385
      8          1           0       -1.195593    1.675691    0.596496
      9          6           0       -1.247873   -0.355750   -0.038362
     10          1           0       -1.673549   -0.655668   -1.001273
     11          1           0       -2.039033   -0.469862    0.708881
     12          6           0        0.025897   -1.205236    0.191335
     13          1           0       -0.033927   -2.168926   -0.322691
     14          1           0        0.188017   -1.401938    1.257625
 ---------------------------------------------------------------------
 Rotational constants (GHZ):           7.1506853           6.4960883           4.0017335
 Standard basis: 6-31G(d) (6D, 7F)
 There are    93 symmetry adapted cartesian basis functions of A   symmetry.
 There are    93 symmetry adapted basis functions of A   symmetry.
    93 basis functions,   176 primitive gaussians,    93 cartesian basis functions
    20 alpha electrons       20 beta electrons
       nuclear repulsion energy       190.5593301160 Hartrees.
 NAtoms=   14 NActive=   14 NUniq=   14 SFac= 1.00D+00 NAtFMM=   60 NAOKFM=F Big=F
 Integral buffers will be    131072 words long.
 Raffenetti 1 integral format.
 Two-electron integral symmetry is turned on.
 One-electron integrals computed using PRISM.
 NBasis=    93 RedAO= T EigKep=  2.96D-03  NBF=    93
 NBsUse=    93 1.00D-06 EigRej= -1.00D+00 NBFU=    93
 Initial guess from the checkpoint file:  "PRLD.scan4.pos.chk"
 B after Tr=     0.000000   -0.000000    0.000000
         Rot=    0.820526   -0.000232    0.008421   -0.571547 Ang= -69.73 deg.
 Keep R1 ints in memory in canonical form, NReq=10436387.
 Requested convergence on RMS density matrix=1.00D-08 within 128 cycles.
 Requested convergence on MAX density matrix=1.00D-06.
 Requested convergence on             energy=1.00D-06.
 No special actions if energy rises.
 SCF Done:  E(RHF) =  -211.128711926     A.U. after   11 cycles
            NFock= 11  Conv=0.94D-08     -V/T= 2.0013
 ExpMin= 1.61D-01 ExpMax= 4.17D+03 ExpMxC= 6.27D+02 IAcc=3 IRadAn=         5 AccDes= 0.00D+00
 HarFok:  IExCor=  205 AccDes= 0.00D+00 IRadAn=         5 IDoV=-2 UseB2=F ITyADJ=14
 ICtDFT= 12500011 ScaDFX=  1.000000  1.000000  1.000000  1.000000
 Range of M.O.s used for correlation:     6    93
 NBasis=    93 NAE=    20 NBE=    20 NFC=     5 NFV=     0
 NROrb=     88 NOA=    15 NOB=    15 NVA=    73 NVB=    73
 Fully direct method using O(ONN) memory.
 JobTyp=1 Pass  1:  I=   6 to  20 NPSUse=  1 ParTrn=F ParDer=F DoDerP=T.
 Spin components of T(2) and E(2):
     alpha-alpha T2 =       0.2809561350D-01 E2=     -0.8443806899D-01
     alpha-beta  T2 =       0.1687590705D+00 E2=     -0.5175295342D+00
     beta-beta   T2 =       0.2809561350D-01 E2=     -0.8443806899D-01
 ANorm=    0.1106774728D+01
 E2 =    -0.6864056722D+00 EUMP2 =    -0.21181511759779D+03
          IDoAtm=11111111111111
          Differentiating once with respect to electric field.
                with respect to dipole field.
          Differentiating once with respect to nuclear coordinates.
 Keep R1 ints in memory in canonical form, NReq=10438859.
          There are     1 degrees of freedom in the 1st order CPHF.  IDoFFX=0 NUNeed=     1.
 LinEq1:  Iter=  0 NonCon=     1 RMS=4.30D-03 Max=4.91D-02 NDo=     1
 AX will form     1 AO Fock derivatives at one time.
 LinEq1:  Iter=  1 NonCon=     1 RMS=1.47D-03 Max=1.13D-02 NDo=     1
 LinEq1:  Iter=  2 NonCon=     1 RMS=3.01D-04 Max=3.60D-03 NDo=     1
 LinEq1:  Iter=  3 NonCon=     1 RMS=6.24D-05 Max=5.14D-04 NDo=     1
 LinEq1:  Iter=  4 NonCon=     1 RMS=1.79D-05 Max=2.24D-04 NDo=     1
 LinEq1:  Iter=  5 NonCon=     1 RMS=6.99D-06 Max=6.54D-05 NDo=     1
 LinEq1:  Iter=  6 NonCon=     1 RMS=1.18D-06 Max=1.50D-05 NDo=     1
 LinEq1:  Iter=  7 NonCon=     1 RMS=3.17D-07 Max=2.68D-06 NDo=     1
 LinEq1:  Iter=  8 NonCon=     1 RMS=9.28D-08 Max=1.00D-06 NDo=     1
 LinEq1:  Iter=  9 NonCon=     1 RMS=1.56D-08 Max=1.47D-07 NDo=     1
 LinEq1:  Iter= 10 NonCon=     1 RMS=3.54D-09 Max=2.04D-08 NDo=     1
 LinEq1:  Iter= 11 NonCon=     1 RMS=6.86D-10 Max=7.59D-09 NDo=     1
 LinEq1:  Iter= 12 NonCon=     1 RMS=1.50D-10 Max=9.47D-10 NDo=     1
 LinEq1:  Iter= 13 NonCon=     0 RMS=3.44D-11 Max=2.60D-10 NDo=     1
 Linear equations converged to 1.000D-10 1.000D-09 after    13 iterations.
 End of Minotr F.D. properties file   721 does not exist.
 End of Minotr F.D. properties file   722 does not exist.
 End of Minotr F.D. properties file   788 does not exist.
 Calling FoFJK, ICntrl=  10002127 FMM=F ISym2X=0 I1Cent= 0 IOpClX= 0 NMat=1 NMatS=1 NMatT=0.
 ***** Axes restored to original set *****
 -------------------------------------------------------------------
 Center     Atomic                   Forces (Hartrees/Bohr)
 Number     Number              X              Y              Z
 -------------------------------------------------------------------
      1        7          -0.015419550   -0.035036809   -0.028531106
      2        1           0.004325410   -0.005797379   -0.004969374
      3        6           0.029213056    0.037216971    0.024591782
      4        1           0.000197048    0.007318647   -0.008361620
      5        1          -0.001599717   -0.006676006    0.003029466
      6        6          -0.007671759    0.002448238   -0.034397754
      7        1          -0.004871975   -0.001949340    0.004850259
      8        1           0.006466587    0.004938896   -0.000939439
      9        6           0.003507746   -0.001133230    0.024872686
     10        1           0.001362018   -0.003399072   -0.001630329
     11        1          -0.004696120    0.002940411   -0.000061195
     12        6          -0.009045482   -0.001328819    0.019700390
     13        1          -0.002762988    0.000591380    0.000810629
     14        1           0.000995727   -0.000133887    0.001035605
 -------------------------------------------------------------------
 Cartesian Forces:  Max     0.037216971 RMS     0.013720939

 GradGradGradGradGradGradGradGradGradGradGradGradGradGradGradGradGradGrad
 Berny optimization.
 FormGI is forming the generalized inverse of G from B-inverse, IUseBI=4.
 Internal  Forces:  Max     0.025834017 RMS     0.006709469
 Search for a local minimum.
 Step number   1 out of a maximum of   90 on scan point     2 out of     7
 All quantities printed in internal units (Hartrees-Bohrs-Radians)
 Mixed Optimization -- RFO/linear search
 Second derivative matrix not updated -- first step.
 ITU=  0
     Eigenvalues ---    0.00577   0.01453   0.02273   0.02478   0.04201
     Eigenvalues ---    0.04747   0.04882   0.05360   0.05415   0.05698
     Eigenvalues ---    0.06017   0.06568   0.06669   0.07936   0.08812
     Eigenvalues ---    0.09133   0.09386   0.11006   0.11365   0.19556
     Eigenvalues ---    0.20044   0.26147   0.26796   0.27271   0.32929
     Eigenvalues ---    0.33749   0.34138   0.34225   0.34285   0.34296
     Eigenvalues ---    0.34338   0.34364   0.34372   0.34992   0.44083
     Eigenvalues --- 1000.000001000.000001000.000001000.000001000.00000
     Eigenvalues --- 1000.000001000.000001000.000001000.000001000.00000
     Eigenvalues --- 1000.000001000.000001000.000001000.000001000.00000
     Eigenvalues --- 1000.000001000.000001000.000001000.000001000.00000
     Eigenvalues --- 1000.000001000.000001000.000001000.000001000.00000
     Eigenvalues --- 1000.000001000.000001000.000001000.000001000.00000
     Eigenvalues --- 1000.000001000.000001000.000001000.000001000.00000
     Eigenvalues --- 1000.000001000.000001000.000001000.000001000.00000
     Eigenvalues --- 1000.000001000.000001000.000001000.000001000.00000
 RFO step:  Lambda=-1.43149780D-02 EMin= 5.76963121D-03
 Linear search not attempted -- first point.
 Iteration  1 RMS(Cart)=  0.05842824 RMS(Int)=  0.00189116
 Iteration  2 RMS(Cart)=  0.00186051 RMS(Int)=  0.00083634
 Iteration  3 RMS(Cart)=  0.00000110 RMS(Int)=  0.00083634
 Iteration  4 RMS(Cart)=  0.00000000 RMS(Int)=  0.00083634
 Iteration  1 RMS(Cart)=  0.00003313 RMS(Int)=  0.00005950
 Iteration  2 RMS(Cart)=  0.00002662 RMS(Int)=  0.00006402
[...]
           A26        110.22541 110.23964 111.08091 111.83964 112.83907
           A27        107.61407 107.28567 107.41567 107.90775 108.97876
           D1         -48.76006 -50.84313 -54.84862 -63.96437 -70.49658
           D2        -166.05226-168.84781-173.80237 176.28129 169.82654
           D3          75.52364  73.06100  68.26959  57.53124  49.18700
           D4        -162.40784-164.64804-167.89012-174.98057-178.88780
           D5          80.29995  77.34728  73.15613  65.26510  61.43532
           D6         -38.12415 -40.74390 -44.77191 -53.48495 -59.20423
           D7         -75.53839 -86.36841 -93.26560 -89.14032 -86.12292
           D8          48.74527  37.54414  29.02843  32.36923  34.24246
           D9         166.04829 154.39174 146.38999 149.96671 152.46937
           D10         38.10026  26.92073  18.92516  21.11802  22.39716
           D11        162.38392 150.83328 141.21919 142.62757 142.76254
           D12        -80.31306 -92.31913-101.41925 -99.77496 -99.01055
           D13        -95.37384 -78.93859 -63.74724 -49.22730 -34.33727
           D14        145.32466 160.85306 173.87806-173.26202-159.48812
           D15         23.43535  38.43477  53.43498  68.43478  83.43480
           D16         27.03555  42.66194  56.25888  68.97723  82.65668
           D17        -92.26594 -77.54641 -66.11582 -55.05749 -42.49416
           D18        145.84474 160.03531 173.44111-173.36069-159.57125
           D19        147.95183 164.50239 179.49862-166.30842-152.38847
           D20         28.65033  44.29405  57.12392  69.65685  82.46069
           D21        -93.23899 -78.12424 -63.31916 -48.64635 -34.61640
           D22       -118.58559-142.08452-159.82145-165.41883-165.87293
           D23        121.51593  98.28944  78.74723  69.27577  62.59748
           D24         -0.04001 -20.62295 -38.77763 -48.19354 -54.28907
           D25         -0.03346 -25.76316 -44.34678 -49.80502 -49.31060
           D26       -119.93194-145.38920-165.77811-175.11042 179.15981
           D27        118.51213  95.69841  76.69703  67.42027  62.27327
           D28        119.85399  94.97544  78.41338  74.50588  75.73112
           D29         -0.04448 -24.65060 -43.01795 -50.79952 -55.79847
           D30       -121.60042-143.56299-160.54281-168.26883-172.68501
           D31        -23.36849  -3.20669  13.40194  18.36810  22.51663
           D32       -145.79502-125.13580-107.56563-102.78201 -98.88822
           D33         93.31025 114.69000 132.25426 136.63212 139.58338
           D34         95.44122 118.09621 135.71484 139.29670 141.67285
           D35        -26.98530  -3.83291  14.74727  18.14659  20.26801
           D36       -147.88003-124.00711-105.43284-102.43928-101.26039
           D37       -145.25859-122.28936-103.33789 -98.00160 -94.08986
           D38         92.31488 115.78152 135.69454 140.84829 144.50529
           D39        -28.57985  -4.39268  15.51444  20.26242  22.97689
                           6         7
     Eigenvalues --    -0.69671  -0.68654
           R1           1.01765   1.02021
           R2           1.45346   1.43593
           R3           1.68631   1.41596
           R4           1.10791   1.09514
           R5           1.08256   1.09354
           R6           1.54822   1.58988
           R7           1.08414   1.09401
           R8           1.10404   1.09564
           R9           1.49047   1.46941
           R10          1.09514   1.08862
           R11          1.08386   1.08796
           R12          1.83853   3.69393
           R13          1.09433   1.08891
           R14          1.09043   1.09182
           A1         108.20915 111.86239
           A2         106.78019 112.32358
           A3          82.85274 117.48815
           A4         110.58168 108.80367
           A5         111.98081 107.83204
           A6          97.73794 112.80540
           A7         106.80172 107.79708
           A8         112.85784 109.38389
           A9         116.74568 110.08146
           A10        114.66732 107.75004
           A11        114.01433 107.85723
           A12         91.21622 111.31375
           A13        107.99358 108.69026
           A14        114.40563 110.71169
           A15        114.03797 110.40930
           A16        119.14155 119.52415
           A17        117.06853 119.46586
           A18         82.51968  58.01603
           A19        112.26881 116.85833
           A20        107.30926  73.25828
           A21        114.52147 124.49620
           A22        107.38868  71.04874
           A23        112.33114 113.41410
           A24        104.47327 112.66791
           A25        107.90064 148.44841
           A26        113.81543  88.32709
           A27        110.93915 115.62860
           D1         -75.11125 -63.85188
           D2         165.90625 179.48742
           D3          42.90795  57.71620
           D4         179.51877 164.07180
           D5          60.53628  47.41110
           D6         -62.46203 -74.36011
           D7         -84.10358-109.25016
           D8          34.37547  37.17509
           D9         154.70954 170.93688
           D10         22.82196  22.61804
           D11        141.30102 169.04329
           D12        -98.36492 -57.19492
           D13        -19.24545  -8.13135
           D14       -144.46799-125.30099
           D15         98.43489 113.43583
           D16         97.00443 113.10774
           D17        -28.21812  -4.06190
           D18       -145.31523-125.32508
           D19       -138.68244-128.62323
           D20         96.09501 114.20713
           D21        -21.00211  -7.05605
           D22       -163.31773 -91.04578
           D23         56.13343  65.34695
           D24        -57.63171 -49.11513
           D25        -45.41075  28.78093
           D26        174.04041-174.82634
           D27         60.27527  70.71158
           D28         79.60576 149.19359
           D29        -60.94308 -54.41368
           D30       -174.70822-168.87576
           D31         26.02727  25.29347
           D32        -95.27566 -78.81302
           D33        141.14600 139.98161
           D34        144.29076 167.90638
           D35         22.98783  63.79989
           D36       -100.59051 -77.40548
           D37        -90.36815 -80.64119
           D38        148.32892 175.25232
           D39         24.75058  34.04695
 GradGradGradGradGradGradGradGradGradGradGradGradGradGradGradGradGradGrad

                          Input orientation:                          
 ---------------------------------------------------------------------
 Center     Atomic      Atomic             Coordinates (Angstroms)
 Number     Number       Type             X           Y           Z
 ---------------------------------------------------------------------
      1          7           0        0.957533    0.571484    1.055400
      2          1           0        1.560965    0.961414    1.779729
      3          6           0        1.543295    0.691156   -0.250153
      4          1           0        1.645461    1.753632   -0.495167
      5          1           0        0.850180    0.247260   -0.970137
      6          6           0        2.964616   -0.013550   -0.354829
      7          1           0        3.259360   -0.321221    0.652808
      8          1           0        3.682273    0.729982   -0.718920
      9          6           0        2.921803   -1.170446   -1.259781
     10          1           0        2.698141   -2.157401   -0.858549
     11          1           0        2.726920   -1.014631   -2.318738
     12          6           0        0.425242   -0.688981    1.419864
     13          1           0        0.172025   -0.762647    2.476363
     14          1           0       -0.340813   -1.039051    0.725110
 ---------------------------------------------------------------------
                    Distance matrix (angstroms):
                    1          2          3          4          5
     1  N    0.000000
     2  H    1.020210   0.000000
     3  C    1.435935   2.047870   0.000000
     4  H    2.067603   2.410374   1.095137   0.000000
     5  H    2.054129   2.928650   1.093540   1.768396   0.000000
     6  C    2.521784   2.734434   1.589881   2.209706   2.217536
     7  H    2.501482   2.408246   2.187493   2.868368   2.959944
     8  H    3.255387   3.285841   2.190086   2.290530   2.883900
     9  C    3.500392   3.954153   2.526894   3.280841   2.526936
    10  H    3.760283   4.240364   3.133383   4.066493   3.034766
    11  H    4.126900   4.696982   2.930823   3.486868   2.633106
    12  C    1.415959   2.035479   2.437987   3.335062   2.601774
    13  H    2.101443   2.320956   3.380505   4.163252   3.654883
    14  H    2.094902   2.954800   2.737630   3.637779   2.438631
                    6          7          8          9         10
     6  C    0.000000
     7  H    1.094015   0.000000
     8  H    1.095643   1.779191   0.000000
     9  C    1.469414   2.119699   2.117185   0.000000
    10  H    2.218296   2.443506   3.053685   1.088620   0.000000
    11  H    2.217115   3.097482   2.552605   1.087956   1.854428
    12  C    3.170831   2.959029   4.146819   3.693931   3.537442
    13  H    4.046648   3.612734   4.975903   4.656861   4.410015
    14  H    3.625435   3.671751   4.626004   3.821219   3.604708
                   11         12         13         14
    11  H    0.000000
    12  C    4.402376   0.000000
    13  H    5.439115   1.088915   0.000000
    14  H    4.321642   1.091821   1.845614   0.000000
 Stoichiometry    C4H9N
 Framework group  C1[X(C4H9N)]
 Deg. of freedom    36
 Full point group                 C1      NOp   1
 Largest Abelian subgroup         C1      NOp   1
 Largest concise Abelian subgroup C1      NOp   1
                         Standard orientation:                         
 ---------------------------------------------------------------------
 Center     Atomic      Atomic             Coordinates (Angstroms)
 Number     Number       Type             X           Y           Z
 ---------------------------------------------------------------------
      1          7           0        1.320312    0.476064   -0.046128
      2          1           0        1.475240    0.932135   -0.945474
      3          6           0        0.021123    0.774222    0.487836
      4          1           0       -0.039130    1.848757    0.690494
      5          1           0       -0.077798    0.248183    1.441423
      6          6           0       -1.158822    0.355030   -0.491822
      7          1           0       -0.711072    0.053656   -1.443433
      8          1           0       -1.783992    1.238538   -0.662140
      9          6           0       -1.960416   -0.738412    0.074754
     10          1           0       -1.693654   -1.770140   -0.147661
     11          1           0       -2.539359   -0.564476    0.979308
     12          6           0        1.728591   -0.879738   -0.053228
     13          1           0        2.630738   -1.056919   -0.636728
     14          1           0        1.713993   -1.328791    0.941865
 ---------------------------------------------------------------------
 Rotational constants (GHZ):           9.3283057           3.1212286           2.6908425

 **********************************************************************

            Population analysis using the SCF density.

 **********************************************************************

 Orbital symmetries:
       Occupied  (A) (A) (A) (A) (A) (A) (A) (A) (A) (A) (A) (A)
                 (A) (A) (A) (A) (A) (A) (A) (A)
       Virtual   (A) (A) (A) (A) (A) (A) (A) (A) (A) (A) (A) (A)
                 (A) (A) (A) (A) (A) (A) (A) (A) (A) (A) (A) (A)
                 (A) (A) (A) (A) (A) (A) (A) (A) (A) (A) (A) (A)
                 (A) (A) (A) (A) (A) (A) (A) (A) (A) (A) (A) (A)
                 (A) (A) (A) (A) (A) (A) (A) (A) (A) (A) (A) (A)
                 (A) (A) (A) (A) (A) (A) (A) (A) (A) (A) (A) (A)
                 (A)
 The electronic state is 1-A.
 Alpha  occ. eigenvalues --  -15.62616 -11.27800 -11.26465 -11.22400 -11.19937
 Alpha  occ. eigenvalues --   -1.25045  -1.03098  -0.92909  -0.84617  -0.78591
 Alpha  occ. eigenvalues --   -0.69176  -0.62969  -0.60835  -0.56512  -0.55532
 Alpha  occ. eigenvalues --   -0.54412  -0.49383  -0.47189  -0.43031  -0.17645
 Alpha virt. eigenvalues --    0.02567   0.21670   0.26514   0.27007   0.27935
 Alpha virt. eigenvalues --    0.30119   0.31962   0.33557   0.34097   0.37032
 Alpha virt. eigenvalues --    0.40481   0.41736   0.46683   0.50225   0.71637
 Alpha virt. eigenvalues --    0.74164   0.76480   0.77532   0.80171   0.83774
 Alpha virt. eigenvalues --    0.86994   0.88545   0.90266   0.91456   0.96905
 Alpha virt. eigenvalues --    0.97966   1.00599   1.07205   1.10398   1.12687
 Alpha virt. eigenvalues --    1.14148   1.16010   1.17114   1.18316   1.20556
 Alpha virt. eigenvalues --    1.23257   1.23942   1.24741   1.28491   1.38214
 Alpha virt. eigenvalues --    1.43971   1.66300   1.72883   1.75008   1.81584
 Alpha virt. eigenvalues --    1.93034   2.01179   2.08187   2.12235   2.15819
 Alpha virt. eigenvalues --    2.20899   2.27508   2.31013   2.37958   2.38558
 Alpha virt. eigenvalues --    2.42501   2.44450   2.53911   2.57291   2.64081
 Alpha virt. eigenvalues --    2.72263   2.76490   2.81046   2.86054   2.92760
 Alpha virt. eigenvalues --    3.05385   3.06737   3.10212   4.28222   4.55301
 Alpha virt. eigenvalues --    4.58516   4.74113   4.91861
          Condensed to atoms (all electrons):
               1          2          3          4          5          6
     1  N    6.914759   0.323009   0.274103  -0.031925  -0.039284  -0.059065
     2  H    0.323009   0.362057  -0.031388  -0.002939   0.004130  -0.001785
     3  C    0.274103  -0.031388   5.227812   0.363982   0.405295   0.208461
     4  H   -0.031925  -0.002939   0.363982   0.539876  -0.026359  -0.033852
     5  H   -0.039284   0.004130   0.405295  -0.026359   0.497658  -0.037339
     6  C   -0.059065  -0.001785   0.208461  -0.033852  -0.037339   5.103873
     7  H   -0.010685   0.002229  -0.065717   0.003672   0.002690   0.397107
     8  H    0.001308  -0.000020  -0.066048   0.000675   0.002576   0.390780
     9  C   -0.007566  -0.000192  -0.090992   0.006660  -0.004330   0.454344
    10  H   -0.000645  -0.000004  -0.001306   0.000026   0.000710  -0.040545
    11  H   -0.000017   0.000003  -0.003272   0.000117   0.001614  -0.044667
    12  C    0.306194  -0.031042  -0.099703   0.005608  -0.002672  -0.001503
    13  H   -0.037581  -0.004463   0.003855  -0.000148  -0.000030  -0.000126
    14  H   -0.041834   0.003720  -0.000656  -0.000345   0.002458  -0.000549
               7          8          9         10         11         12
     1  N   -0.010685   0.001308  -0.007566  -0.000645  -0.000017   0.306194
     2  H    0.002229  -0.000020  -0.000192  -0.000004   0.000003  -0.031042
     3  C   -0.065717  -0.066048  -0.090992  -0.001306  -0.003272  -0.099703
     4  H    0.003672   0.000675   0.006660   0.000026   0.000117   0.005608
     5  H    0.002690   0.002576  -0.004330   0.000710   0.001614  -0.002672
     6  C    0.397107   0.390780   0.454344  -0.040545  -0.044667  -0.001503
     7  H    0.545717  -0.017196  -0.036542  -0.002148   0.003467   0.013657
     8  H   -0.017196   0.563822  -0.048391   0.004001  -0.001045   0.001446
     9  C   -0.036542  -0.048391   5.381718   0.386905   0.390859   0.028112
    10  H   -0.002148   0.004001   0.386905   0.513687  -0.028980   0.004061
    11  H    0.003467  -0.001045   0.390859  -0.028980   0.531274   0.000153
    12  C    0.013657   0.001446   0.028112   0.004061   0.000153   5.248404
    13  H   -0.000196   0.000000  -0.000049   0.000003  -0.000000   0.394322
    14  H   -0.000159  -0.000030  -0.001799  -0.000196  -0.000015   0.387698
              13         14
     1  N   -0.037581  -0.041834
     2  H   -0.004463   0.003720
     3  C    0.003855  -0.000656
     4  H   -0.000148  -0.000345
     5  H   -0.000030   0.002458
     6  C   -0.000126  -0.000549
     7  H   -0.000196  -0.000159
     8  H    0.000000  -0.000030
     9  C   -0.000049  -0.001799
    10  H    0.000003  -0.000196
    11  H   -0.000000  -0.000015
    12  C    0.394322   0.387698
    13  H    0.492129  -0.030975
    14  H   -0.030975   0.493832
 Mulliken charges:
               1
     1  N   -0.590770
     2  H    0.376687
     3  C   -0.124426
     4  H    0.174951
     5  H    0.192882
     6  C   -0.335133
     7  H    0.164105
     8  H    0.168123
     9  C   -0.458736
    10  H    0.164432
    11  H    0.150512
    12  C   -0.254736
    13  H    0.183259
    14  H    0.188851
 Sum of Mulliken charges =  -0.00000
 Mulliken charges with hydrogens summed into heavy atoms:
               1
     1  N   -0.214084
     3  C    0.243407
     6  C   -0.002906
     9  C   -0.143793
    12  C    0.117374
 Electronic spatial extent (au):  <R**2>=            516.3541
 Charge=             -0.0000 electrons
 Dipole moment (field-independent basis, Debye):
    X=              2.2725    Y=              1.3858    Z=             -0.1692  Tot=              2.6671
 Quadrupole moment (field-independent basis, Debye-Ang):
   XX=            -36.5360   YY=            -32.7536   ZZ=            -31.7389
   XY=             -2.3496   XZ=             -3.4909   YZ=             -1.9255
 Traceless Quadrupole moment (field-independent basis, Debye-Ang):
   XX=             -2.8599   YY=              0.9226   ZZ=              1.9373
   XY=             -2.3496   XZ=             -3.4909   YZ=             -1.9255
 Octapole moment (field-independent basis, Debye-Ang**2):
  XXX=             22.1440  YYY=              5.5721  ZZZ=              0.0155  XYY=              2.8292
  XXY=              1.6246  XXZ=             -0.8281  XZZ=              4.4616  YZZ=              1.9890
  YYZ=             -0.1818  XYZ=             -2.2897
 Hexadecapole moment (field-independent basis, Debye-Ang**3):
 XXXX=           -500.2563 YYYY=           -157.1963 ZZZZ=            -81.3014 XXXY=            -21.7601
 XXXZ=            -27.4091 YYYX=              0.1607 YYYZ=             -2.7961 ZZZX=             -5.0434
 ZZZY=             -3.9704 XXYY=           -103.4453 XXZZ=            -88.9464 YYZZ=            -40.4250
 XXYZ=             -6.3148 YYXZ=             -1.3454 ZZXY=             -0.0599
 N-N= 1.746796053655D+02 E-N=-8.404179177614D+02  KE= 2.104343276816D+02
 1\1\GINC-C404-024\Scan\RMP2-FC\6-31G(d)\C4H9N1\TG455515\02-Apr-2021\0\
 \# opt=modredundant MP2/6-31g(d) Geom=PrintInputOrient\\PRLD Dihedral/
 Improper Scan\\0,1\N,0.9575326942,0.5714840018,1.0554004357\H,1.560965
 201,0.9614138393,1.7797290367\C,1.5432950624,0.6911561659,-0.250153074
 5\H,1.6454606634,1.7536324881,-0.4951674358\H,0.8501799336,0.24726019,
 -0.9701367636\C,2.9646160137,-0.0135503598,-0.3548292909\H,3.259360121
 5,-0.3212210135,0.6528078012\H,3.6822725771,0.7299818672,-0.7189201965
 \C,2.9218029453,-1.1704459708,-1.2597809654\H,2.6981405226,-2.15740108
 09,-0.8585486399\H,2.7269198131,-1.0146314267,-2.3187379695\C,0.425241
 6606,-0.688980955,1.4198643658\H,0.1720251628,-0.7626469307,2.47636308
 57\H,-0.340812772,-1.0390507847,0.7251095751\\Version=ES64L-G16RevA.03
 \State=1-A\HF=-211.1432102,-211.1428708,-211.1372392,-211.1139968,-211
 .0648958,-210.9927069,-210.9138183\MP2=-211.8273514,-211.8272584,-211.
 8229716,-211.8030184,-211.7599522,-211.6967139,-211.6865356\RMSD=8.975
 e-09,7.608e-09,4.341e-09,9.474e-09,6.102e-09,8.567e-09,8.495e-09\PG=C0
 1 [X(C4H9N1)]\\@


 MEN HAVE BECOME THE TOOLS OF THEIR TOOLS... THOREAU   
 Job cpu time:       0 days  0 hours 27 minutes 38.5 seconds.
 Elapsed time:       0 days  0 hours 27 minutes 16.1 seconds.
 File lengths (MBytes):  RWF=     10 Int=      0 D2E=      0 Chk=      3 Scr=      1
 Normal termination of Gaussian 16 at Fri Apr  2 19:24:35 2021.
