
    -----------------------------------------------------------------------
          Psi4: An Open-Source Ab Initio Electronic Structure Package
                               Psi4 1.4 release

                         Git: Rev {master} 9485035 


    D. G. A. Smith, L. A. Burns, A. C. Simmonett, R. M. Parrish,
    M. C. Schieber, R. Galvelis, P. Kraus, H. Kruse, R. Di Remigio,
    A. Alenaizan, A. M. James, S. Lehtola, J. P. Misiewicz, M. Scheurer,
    R. A. Shaw, J. B. Schriber, Y. Xie, Z. L. Glick, D. A. Sirianni,
    J. S. O'Brien, J. M. Waldrop, A. Kumar, E. G. Hohenstein,
    B. P. Pritchard, B. R. Brooks, H. F. Schaefer III, A. Yu. Sokolov,
    K. Patkowski, A. E. DePrince III, U. Bozkaya, R. A. King,
    F. A. Evangelista, J. M. Turney, T. D. Crawford, C. D. Sherrill,
    J. Chem. Phys. 152(18) 184108 (2020). https://doi.org/10.1063/5.0006002

                            Additional Code Authors
    E. T. Seidl, C. L. Janssen, E. F. Valeev, M. L. Leininger,
    J. F. Gonthier, R. M. Richard, H. R. McAlexander, M. Saitow, X. Wang,
    P. Verma, and M. H. Lechner

             Previous Authors, Complete List of Code Contributors,
                       and Citations for Specific Modules
    https://github.com/psi4/psi4/blob/master/codemeta.json
    https://github.com/psi4/psi4/graphs/contributors
    http://psicode.org/psi4manual/master/introduction.html#citing-psifour

    -----------------------------------------------------------------------


    Psi4 started on: Wednesday, 25 August 2021 05:19PM

    Process ID: 19967
    Host:       ds3
    PSIDATADIR: /theoryfs2/ds/pmnelson/miniconda3/envs/psi4/share/psi4
    Memory:     500.0 MiB
    Threads:    1
    
  ==> Input File <==

--------------------------------------------------------------------------
memory 1GB

molecule mol {
    0 1
    O
    H 1 0.9572
    H 1 0.9572 2 104.52
}

energy("HF/6-31G*")
--------------------------------------------------------------------------

  Memory set to 953.674 MiB by Python driver.

Scratch directory: /scratch/pmnelson/

Scratch directory: /scratch/pmnelson/

*** tstart() called on ds3
*** at Wed Aug 25 17:19:54 2021

   => Loading Basis Set <=

    Name: 6-31G*
    Role: ORBITAL
    Keyword: BASIS
    atoms 1   entry O          line   145 file /theoryfs2/ds/pmnelson/miniconda3/envs/psi4/share/psi4/basis/6-31gs.gbs 
    atoms 2-3 entry H          line    44 file /theoryfs2/ds/pmnelson/miniconda3/envs/psi4/share/psi4/basis/6-31gs.gbs 


         ---------------------------------------------------------
                                   SCF
               by Justin Turney, Rob Parrish, Andy Simmonett
                          and Daniel G. A. Smith
                              RHF Reference
                        1 Threads,    953 MiB Core
         ---------------------------------------------------------

  ==> Geometry <==

    Molecular point group: c2v
    Full point group: C2v

    Geometry (in Angstrom), charge = 0, multiplicity = 1:

       Center              X                  Y                   Z               Mass       
    ------------   -----------------  -----------------  -----------------  -----------------
         O            0.000000000000     0.000000000000    -0.065568940749    15.994914619570
         H            0.000000000000    -0.756950327264     0.520313335869     1.007825032230
         H            0.000000000000     0.756950327264     0.520313335869     1.007825032230

  Running in c2v symmetry.

  Rotational constants: A =     27.43507  B =     14.59643  C =      9.52747 [cm^-1]
  Rotational constants: A = 822482.64900  B = 437589.91098  C = 285626.49532 [MHz]
  Nuclear repulsion =    9.194964850162085

  Charge       = 0
  Multiplicity = 1
  Electrons    = 10
  Nalpha       = 5
  Nbeta        = 5

  ==> Algorithm <==

  SCF Algorithm Type is DF.
  DIIS enabled.
  MOM disabled.
  Fractional occupation disabled.
  Guess Type is SAD.
  Energy threshold   = 1.00e-06
  Density threshold  = 1.00e-06
  Integral threshold = 1.00e-12

  ==> Primary Basis <==

  Basis Set: 6-31G*
    Blend: 6-31G*
    Number of shells: 10
    Number of basis functions: 19
    Number of Cartesian functions: 19
    Spherical Harmonics?: false
    Max angular momentum: 2

   => Loading Basis Set <=

    Name: (6-31G* AUX)
    Role: JKFIT
    Keyword: DF_BASIS_SCF
    atoms 1   entry O          line   221 file /theoryfs2/ds/pmnelson/miniconda3/envs/psi4/share/psi4/basis/cc-pvdz-jkfit.gbs 
    atoms 2-3 entry H          line    51 file /theoryfs2/ds/pmnelson/miniconda3/envs/psi4/share/psi4/basis/cc-pvdz-jkfit.gbs 

  ==> Integral Setup <==

  DFHelper Memory: AOs need 0.001 GiB; user supplied 0.698 GiB. Using in-core AOs.

  ==> MemDFJK: Density-Fitted J/K Matrices <==

    J tasked:                   Yes
    K tasked:                   Yes
    wK tasked:                   No
    OpenMP threads:               1
    Memory [MiB]:               715
    Algorithm:                 Core
    Schwarz Cutoff:           1E-12
    Mask sparsity (%):       0.0000
    Fitting Condition:        1E-10

   => Auxiliary Basis Set <=

  Basis Set: (6-31G* AUX)
    Blend: CC-PVDZ-JKFIT
    Number of shells: 42
    Number of basis functions: 131
    Number of Cartesian functions: 131
    Spherical Harmonics?: false
    Max angular momentum: 3

  Minimum eigenvalue in the overlap matrix is 2.1495384003E-02.
  Reciprocal condition number of the overlap matrix is 5.0273435885E-03.
    Using symmetric orthogonalization.

  ==> Pre-Iterations <==

  SCF Guess: Superposition of Atomic Densities via on-the-fly atomic UHF (no occupation information).

   -------------------------
    Irrep   Nso     Nmo    
   -------------------------
     A1        10      10 
     A2         1       1 
     B1         3       3 
     B2         5       5 
   -------------------------
    Total      19      19
   -------------------------

  ==> Iterations <==

                           Total Energy        Delta E     RMS |[F,P]|

   @DF-RHF iter SAD:   -75.52490142767961   -7.55249e+01   0.00000e+00 
   @DF-RHF iter   1:   -75.93985725292599   -4.14956e-01   3.51253e-02 DIIS
   @DF-RHF iter   2:   -75.99166138518467   -5.18041e-02   2.04376e-02 DIIS
   @DF-RHF iter   3:   -76.01013820976742   -1.84768e-02   1.81719e-03 DIIS
   @DF-RHF iter   4:   -76.01048390414971   -3.45694e-04   4.22682e-04 DIIS
   @DF-RHF iter   5:   -76.01050272065024   -1.88165e-05   7.76716e-05 DIIS
   @DF-RHF iter   6:   -76.01050363828922   -9.17639e-07   1.19792e-05 DIIS
   @DF-RHF iter   7:   -76.01050366203519   -2.37460e-08   1.93825e-06 DIIS
   @DF-RHF iter   8:   -76.01050366268146   -6.46267e-10   4.17695e-07 DIIS
  Energy and wave function converged.


  ==> Post-Iterations <==

    Orbital Energies [Eh]
    ---------------------

    Doubly Occupied:                                                      

       1A1   -20.560366     2A1    -1.341806     1B2    -0.706946  
       3A1    -0.570999     1B1    -0.497897  

    Virtual:                                                              

       4A1     0.210755     2B2     0.304185     3B2     1.022740  
       5A1     1.131824     2B1     1.167826     6A1     1.171757  
       4B2     1.380956     7A1     1.434096     8A1     2.020791  
       1A2     2.034319     3B1     2.068523     9A1     2.622825  
       5B2     2.947589    10A1     3.970630  

    Final Occupation by Irrep:
             A1    A2    B1    B2 
    DOCC [     3,    0,    1,    1 ]

  @DF-RHF Final Energy:   -76.01050366268146

   => Energetics <=

    Nuclear Repulsion Energy =              9.1949648501620853
    One-Electron Energy =                -123.0549069263615110
    Two-Electron Energy =                  37.8494384135179729
    Total Energy =                        -76.0105036626814581

Computation Completed


Properties will be evaluated at   0.000000,   0.000000,   0.000000 [a0]

Properties computed using the SCF density matrix

  Nuclear Dipole Moment: [e a0]
     X:     0.0000      Y:     0.0000      Z:     0.9752

  Electronic Dipole Moment: [e a0]
     X:     0.0000      Y:     0.0000      Z:    -0.0999

  Dipole Moment: [e a0]
     X:     0.0000      Y:     0.0000      Z:     0.8754     Total:     0.8754

  Dipole Moment: [D]
     X:     0.0000      Y:     0.0000      Z:     2.2250     Total:     2.2250


*** tstop() called on ds3 at Wed Aug 25 17:19:54 2021
Module time:
	user time   =       0.24 seconds =       0.00 minutes
	system time =       0.01 seconds =       0.00 minutes
	total time  =          0 seconds =       0.00 minutes
Total time:
	user time   =       0.24 seconds =       0.00 minutes
	system time =       0.01 seconds =       0.00 minutes
	total time  =          0 seconds =       0.00 minutes

    Psi4 stopped on: Wednesday, 25 August 2021 05:19PM
    Psi4 wall time for execution: 0:00:00.31

*** Psi4 exiting successfully. Buy a developer a beer!
