 Entering Gaussian System, Link 0=g16
 Initial command:
 /home1/apps/gaussian/16rA.03/g16/l1.exe "/tmp/Gau-19254.inp" -scrdir="/tmp/"
 Entering Link 1 = /home1/apps/gaussian/16rA.03/g16/l1.exe PID=     19255.
  
 Copyright (c) 1988,1990,1992,1993,1995,1998,2003,2009,2016,
            Gaussian, Inc.  All Rights Reserved.
  
 This is part of the Gaussian(R) 16 program.  It is based on
 the Gaussian(R) 09 system (copyright 2009, Gaussian, Inc.),
 the Gaussian(R) 03 system (copyright 2003, Gaussian, Inc.),
 the Gaussian(R) 98 system (copyright 1998, Gaussian, Inc.),
 the Gaussian(R) 94 system (copyright 1995, Gaussian, Inc.),
 the Gaussian 92(TM) system (copyright 1992, Gaussian, Inc.),
 the Gaussian 90(TM) system (copyright 1990, Gaussian, Inc.),
 the Gaussian 88(TM) system (copyright 1988, Gaussian, Inc.),
 the Gaussian 86(TM) system (copyright 1986, Carnegie Mellon
 University), and the Gaussian 82(TM) system (copyright 1983,
 Carnegie Mellon University). Gaussian is a federally registered
 trademark of Gaussian, Inc.
  
 This software contains proprietary and confidential information,
 including trade secrets, belonging to Gaussian, Inc.
  
 This software is provided under written license and may be
 used, copied, transmitted, or stored only in accord with that
 written license.
  
 The following legend is applicable only to US Government
 contracts under FAR:
  
                    RESTRICTED RIGHTS LEGEND
  
 Use, reproduction and disclosure by the US Government is
 subject to restrictions as set forth in subparagraphs (a)
 and (c) of the Commercial Computer Software - Restricted
 Rights clause in FAR 52.227-19.
  
 Gaussian, Inc.
 340 Quinnipiac St., Bldg. 40, Wallingford CT 06492
  
  
 ---------------------------------------------------------------
 Warning -- This program may not be used in any manner that
 competes with the business of Gaussian, Inc. or will provide
 assistance to any competitor of Gaussian, Inc.  The licensee
 of this program is prohibited from giving any competitor of
 Gaussian, Inc. access to this program.  By using this program,
 the user acknowledges that Gaussian, Inc. is engaged in the
 business of creating and licensing software in the field of
 computational chemistry and represents and warrants to the
 licensee that it is not a competitor of Gaussian, Inc. and that
 it will not use this program in any manner prohibited above.
 ---------------------------------------------------------------
  

 Cite this work as:
 Gaussian 16, Revision A.03,
 M. J. Frisch, G. W. Trucks, H. B. Schlegel, G. E. Scuseria, 
 M. A. Robb, J. R. Cheeseman, G. Scalmani, V. Barone, 
 G. A. Petersson, H. Nakatsuji, X. Li, M. Caricato, A. V. Marenich, 
 J. Bloino, B. G. Janesko, R. Gomperts, B. Mennucci, H. P. Hratchian, 
 J. V. Ortiz, A. F. Izmaylov, J. L. Sonnenberg, D. Williams-Young, 
 F. Ding, F. Lipparini, F. Egidi, J. Goings, B. Peng, A. Petrone, 
 T. Henderson, D. Ranasinghe, V. G. Zakrzewski, J. Gao, N. Rega, 
 G. Zheng, W. Liang, M. Hada, M. Ehara, K. Toyota, R. Fukuda, 
 J. Hasegawa, M. Ishida, T. Nakajima, Y. Honda, O. Kitao, H. Nakai, 
 T. Vreven, K. Throssell, J. A. Montgomery, Jr., J. E. Peralta, 
 F. Ogliaro, M. J. Bearpark, J. J. Heyd, E. N. Brothers, K. N. Kudin, 
 V. N. Staroverov, T. A. Keith, R. Kobayashi, J. Normand, 
 K. Raghavachari, A. P. Rendell, J. C. Burant, S. S. Iyengar, 
 J. Tomasi, M. Cossi, J. M. Millam, M. Klene, C. Adamo, R. Cammi, 
 J. W. Ochterski, R. L. Martin, K. Morokuma, O. Farkas, 
 J. B. Foresman, and D. J. Fox, Gaussian, Inc., Wallingford CT, 2016.
 
 ******************************************
 Gaussian 16:  ES64L-G16RevA.03 25-Dec-2016
                31-Mar-2021 
 ******************************************
 %chk=PRLD-DON-H32.chk
 %nproc=1
 Will use up to    1 processors via shared memory.
 %mem=1GB
 --------------------------------------------------------------
 # HF/6-31G* Opt=(Z-matrix,MaxCycles=100) Geom=PrintInputOrient
 --------------------------------------------------------------
 1/6=100,10=7,18=40,38=1/1,3;
 2/9=2000,12=2,17=6,18=5,29=3,40=1/2;
 3/5=1,6=6,7=1,11=9,25=1,30=1,71=1/1,2,3;
 4//1;
 5/5=2,38=5/2;
 6/7=2,8=2,9=2,10=2,28=1/1;
 7/29=1/1,2,3,16;
 1/6=100,10=7,18=40/3(2);
 2/9=2000,29=3/2;
 99//99;
 2/9=2000,29=3/2;
 3/5=1,6=6,7=1,11=9,25=1,30=1,71=1/1,2,3;
 4/5=5,16=3,69=1/1;
 5/5=2,38=5/2;
 7//1,2,3,16;
 1/6=100,18=40/3(-5);
 2/9=2000,29=3/2;
 6/7=2,8=2,9=2,10=2,19=2,28=1/1;
 99/9=1/99;
 ---------------------------------------------------------------
 <qmtool> simtype="Geometry optimization" </qmtool> PRLD-DON-H32
 ---------------------------------------------------------------
 Symbolic Z-matrix:
 Charge =  0 Multiplicity = 1
 N1                    0.844     0.456     0.923 
 H2                    1.372     0.495     1.798 
 C3                    1.643     1.125    -0.113 
 H4                    2.        2.097     0.243 
 H5                    0.987     1.307    -0.971 
 C6                    2.779     0.153    -0.504 
 H7                    3.689     0.384     0.059 
 H8                    3.031     0.222    -1.566 
 C9                    2.231    -1.24     -0.112 
 H10                   2.866    -1.707     0.647 
 H11                   2.185    -1.928    -0.962 
 C12                   0.83     -0.941     0.469 
 H13                   0.542    -1.609     1.286 
 H14                   0.068    -1.027    -0.314 
 x                    H8    1.       C6    90.      C9   dih      0
 Ow                   H8   rAH      x     90.      C6    180.     0
 H1w                  Ow    0.9572   H8    127.74   x     0.       0
 H2w                  Ow    0.9572   H8    127.74   x     180.     0
       Variables:
  rAH                   2.                       
  dih                   0.                       
 

 GradGradGradGradGradGradGradGradGradGradGradGradGradGradGradGradGradGrad
 Berny optimization.
 Initialization pass.
                       ----------------------------
                       !    Initial Parameters    !
                       ! (Angstroms and Degrees)  !
 ----------------------                            ----------------------
 !      Name          Value   Derivative information (Atomic Units)     !
 ------------------------------------------------------------------------
 !       rAH         2.0      estimate D2E/DX2                          !
 !       dih         0.0      estimate D2E/DX2                          !
 ------------------------------------------------------------------------
 Trust Radius=3.00D-01 FncErr=1.00D-07 GrdErr=1.00D-07 EigMax=2.50D+02 EigMin=1.00D-04
 Number of steps in this run=    100 maximum allowed number of steps=    100.
 GradGradGradGradGradGradGradGradGradGradGradGradGradGradGradGradGradGrad

 ---------------------------------------------------------------------------------------------------
                            Z-MATRIX (ANGSTROMS AND DEGREES)
   CD    Cent   Atom    N1       Length/X        N2       Alpha/Y        N3        Beta/Z          J
 ---------------------------------------------------------------------------------------------------
      1      1  N        0   0.844000          0.456000          0.923000
      2      2  H        0   1.372000          0.495000          1.798000
      3      3  C        0   1.643000          1.125000         -0.113000
      4      4  H        0   2.000000          2.097000          0.243000
      5      5  H        0   0.987000          1.307000         -0.971000
      6      6  C        0   2.779000          0.153000         -0.504000
      7      7  H        0   3.689000          0.384000          0.059000
      8      8  H        0   3.031000          0.222000         -1.566000
      9      9  C        0   2.231000         -1.240000         -0.112000
     10     10  H        0   2.866000         -1.707000          0.647000
     11     11  H        0   2.185000         -1.928000         -0.962000
     12     12  C        0   0.830000         -0.941000          0.469000
     13     13  H        0   0.542000         -1.609000          1.286000
     14     14  H        0   0.068000         -1.027000         -0.314000
     15         X        8   1.000000(    14)      6   90.000(    30)      9    0.000(    45)      0
     16     15  O        8   2.000000(    15)     15   90.000(    31)      6  180.000(    46)      0
     17     16  H       16   0.957200(    16)      8  127.740(    32)     15    0.000(    47)      0
     18     17  H       16   0.957200(    17)      8  127.740(    33)     15  180.000(    48)      0
 ---------------------------------------------------------------------------------------------------
                         Z-Matrix orientation:                         
 ---------------------------------------------------------------------
 Center     Atomic      Atomic             Coordinates (Angstroms)
 Number     Number       Type             X           Y           Z
 ---------------------------------------------------------------------
      1          7           0        0.844000    0.456000    0.923000
      2          1           0        1.372000    0.495000    1.798000
      3          6           0        1.643000    1.125000   -0.113000
      4          1           0        2.000000    2.097000    0.243000
      5          1           0        0.987000    1.307000   -0.971000
      6          6           0        2.779000    0.153000   -0.504000
      7          1           0        3.689000    0.384000    0.059000
      8          1           0        3.031000    0.222000   -1.566000
      9          6           0        2.231000   -1.240000   -0.112000
     10          1           0        2.866000   -1.707000    0.647000
     11          1           0        2.185000   -1.928000   -0.962000
     12          6           0        0.830000   -0.941000    0.469000
     13          1           0        0.542000   -1.609000    1.286000
     14          1           0        0.068000   -1.027000   -0.314000
     15         -1           0        2.743323   -0.726876   -1.695912
     16          8           0        3.491834    0.348181   -3.508089
     17          1           0        3.409075   -0.333107   -4.175344
     18          1           0        3.844588    1.103396   -3.978670
 ---------------------------------------------------------------------
                    Distance matrix (angstroms):
                    1          2          3          4          5
     1  N    0.000000
     2  H    1.022707   0.000000
     3  C    1.469441   2.030335   0.000000
     4  H    2.119343   2.319227   1.094974   0.000000
     5  H    2.081318   2.911173   1.095274   1.767502   0.000000
     6  C    2.423296   2.719525   1.545368   2.223508   2.181987
     7  H    2.974173   2.899126   2.182838   2.412664   3.035397
     8  H    3.321573   3.760759   2.202989   2.801975   2.389390
     9  C    2.423099   2.719597   2.437000   3.363771   2.961862
    10  H    2.973757   2.899248   3.177035   3.922192   3.902917
    11  H    3.321891   3.761582   3.214868   4.205577   3.449712
    12  C    1.468986   2.030296   2.295223   3.263345   2.674276
    13  H    2.118301   2.319021   3.262539   4.116801   3.714180
    14  H    2.081258   2.911605   2.674347   3.715138   2.593023
    15  X    3.444608   3.947269   2.673157   3.505165   2.783311
    16  O    5.163061   5.715753   3.943129   4.399387   3.691930
    17  H    5.761546   6.365240   4.663447   5.235712   4.338689
    18  H    5.783513   6.312983   4.448692   4.712987   4.153714
                    6          7          8          9         10
     6  C    0.000000
     7  H    1.094728   0.000000
     8  H    1.093668   1.760634   0.000000
     9  C    1.547390   2.189151   2.211687   0.000000
    10  H    2.189057   2.322790   2.940346   1.094255   0.000000
    11  H    2.212049   2.941054   2.388102   1.094514   1.761103
    12  C    2.437656   3.177673   3.215306   1.545886   2.182598
    13  H    3.363467   3.921886   4.204948   2.223350   2.412240
    14  H    2.962773   3.904061   3.450634   2.182829   3.035577
    15  X    1.481927   2.282119   1.000000   1.741996   2.542623
    16  O    3.093668   3.572713   2.000000   3.955432   4.677628
    17  H    3.756602   4.303751   2.694394   4.326786   5.043562
    18  H    3.756602   4.104207   2.694394   4.800657   5.500253
                   11         12         13         14         15
    11  H    0.000000
    12  C    2.204077   0.000000
    13  H    2.802626   1.093918   0.000000
    14  H    2.390271   1.095960   1.767314   0.000000
    15  X    1.514283   2.897154   3.809957   3.026072   0.000000
    16  O    3.656690   4.956267   5.959477   4.880161   2.236068
    17  H    3.790465   5.347064   6.298754   5.153081   2.597279
    18  H    4.587362   5.748832   6.780924   5.677236   3.126286
                   16         17         18
    16  O    0.000000
    17  H    0.957200   0.000000
    18  H    0.957200   1.513901   0.000000
 Stoichiometry    C4H11NO
 Framework group  C1[X(C4H11NO)]
 Deg. of freedom    45
 Full point group                 C1      NOp   1
 Largest Abelian subgroup         C1      NOp   1
 Largest concise Abelian subgroup C1      NOp   1
                         Standard orientation:                         
 ---------------------------------------------------------------------
 Center     Atomic      Atomic             Coordinates (Angstroms)
 Number     Number       Type             X           Y           Z
 ---------------------------------------------------------------------
      1          7           0        1.877495   -0.707235   -0.208445
      2          1           0        2.349567   -0.754260    0.697572
      3          6           0        0.507478   -1.206487   -0.026624
      4          1           0        0.512497   -2.158069    0.515073
      5          1           0        0.088588   -1.393659   -1.021170
      6          6           0       -0.287772   -0.090806    0.688215
      7          1           0       -0.299160   -0.263502    1.769176
      8          1           0       -1.329416   -0.052487    0.357129
      9          6           0        0.492400    1.201492    0.348046
     10          1           0        0.871787    1.676324    1.257988
     11          1           0       -0.126047    1.942142   -0.168599
     12          6           0        1.665221    0.710086   -0.531029
     13          1           0        2.588230    1.280003   -0.389936
     14          1           0        1.396364    0.771510   -1.591723
     15          8           0       -3.234280    0.017587   -0.248332
     16          1           0       -3.679076    0.733934   -0.701362
     17          1           0       -3.905511   -0.657704   -0.150030
 ---------------------------------------------------------------------
 Rotational constants (GHZ):           5.8011735           1.5540373           1.3723006
 Standard basis: 6-31G(d) (6D, 7F)
 There are   112 symmetry adapted cartesian basis functions of A   symmetry.
 There are   112 symmetry adapted basis functions of A   symmetry.
   112 basis functions,   212 primitive gaussians,   112 cartesian basis functions
    25 alpha electrons       25 beta electrons
       nuclear repulsion energy       249.9369403127 Hartrees.
 NAtoms=   17 NActive=   17 NUniq=   17 SFac= 1.00D+00 NAtFMM=   60 NAOKFM=F Big=F
 Integral buffers will be    131072 words long.
 Raffenetti 1 integral format.
 Two-electron integral symmetry is turned on.
 One-electron integrals computed using PRISM.
 NBasis=   112 RedAO= T EigKep=  3.06D-03  NBF=   112
 NBsUse=   112 1.00D-06 EigRej= -1.00D+00 NBFU=   112
 ExpMin= 1.61D-01 ExpMax= 5.48D+03 ExpMxC= 8.25D+02 IAcc=3 IRadAn=         5 AccDes= 0.00D+00
 Harris functional with IExCor=  205 and IRadAn=       5 diagonalized for initial guess.
 HarFok:  IExCor=  205 AccDes= 0.00D+00 IRadAn=         5 IDoV= 1 UseB2=F ITyADJ=14
 ICtDFT=  3500011 ScaDFX=  1.000000  1.000000  1.000000  1.000000
 FoFCou: FMM=F IPFlag=           0 FMFlag=      100000 FMFlg1=           0
         NFxFlg=           0 DoJE=T BraDBF=F KetDBF=T FulRan=T
         wScrn=  0.000000 ICntrl=       500 IOpCl=  0 I1Cent=   200000004 NGrid=           0
         NMat0=    1 NMatS0=      1 NMatT0=    0 NMatD0=    1 NMtDS0=    0 NMtDT0=    0
 Petite list used in FoFCou.
 Keep R1 ints in memory in canonical form, NReq=20924062.
 Requested convergence on RMS density matrix=1.00D-08 within 128 cycles.
 Requested convergence on MAX density matrix=1.00D-06.
 Requested convergence on             energy=1.00D-06.
 No special actions if energy rises.
 SCF Done:  E(RHF) =  -287.150351846     A.U. after   12 cycles
            NFock= 12  Conv=0.67D-08     -V/T= 2.0016

 **********************************************************************

            Population analysis using the SCF density.

 **********************************************************************

 Orbital symmetries:
       Occupied  (A) (A) (A) (A) (A) (A) (A) (A) (A) (A) (A) (A)
                 (A) (A) (A) (A) (A) (A) (A) (A) (A) (A) (A) (A)
                 (A)
       Virtual   (A) (A) (A) (A) (A) (A) (A) (A) (A) (A) (A) (A)
                 (A) (A) (A) (A) (A) (A) (A) (A) (A) (A) (A) (A)
                 (A) (A) (A) (A) (A) (A) (A) (A) (A) (A) (A) (A)
                 (A) (A) (A) (A) (A) (A) (A) (A) (A) (A) (A) (A)
                 (A) (A) (A) (A) (A) (A) (A) (A) (A) (A) (A) (A)
                 (A) (A) (A) (A) (A) (A) (A) (A) (A) (A) (A) (A)
                 (A) (A) (A) (A) (A) (A) (A) (A) (A) (A) (A) (A)
                 (A) (A) (A)
 The electronic state is 1-A.
 Alpha  occ. eigenvalues --  -20.57429 -15.52693 -11.22938 -11.22544 -11.20241
 Alpha  occ. eigenvalues --  -11.18837  -1.35683  -1.20188  -1.00038  -0.95293
 Alpha  occ. eigenvalues --   -0.79905  -0.76565  -0.72110  -0.66039  -0.62890
 Alpha  occ. eigenvalues --   -0.58874  -0.57259  -0.56373  -0.51267  -0.49104
 Alpha  occ. eigenvalues --   -0.47594  -0.45811  -0.45577  -0.43621  -0.35813
 Alpha virt. eigenvalues --    0.19650   0.22876   0.27173   0.29339   0.30034
 Alpha virt. eigenvalues --    0.30912   0.32259   0.34541   0.35299   0.36675
 Alpha virt. eigenvalues --    0.38975   0.39552   0.42802   0.47400   0.51440
 Alpha virt. eigenvalues --    0.54419   0.74613   0.77636   0.78008   0.81218
 Alpha virt. eigenvalues --    0.82091   0.85339   0.91795   0.93368   0.93948
 Alpha virt. eigenvalues --    0.96350   1.01337   1.03144   1.04855   1.10718
 Alpha virt. eigenvalues --    1.12499   1.14175   1.14559   1.14925   1.16433
 Alpha virt. eigenvalues --    1.18079   1.20451   1.20678   1.22561   1.23295
 Alpha virt. eigenvalues --    1.25009   1.25412   1.27760   1.37241   1.42228
 Alpha virt. eigenvalues --    1.50983   1.52560   1.54916   1.61209   1.66172
 Alpha virt. eigenvalues --    1.72723   1.92287   2.01863   2.02649   2.04813
 Alpha virt. eigenvalues --    2.10477   2.13317   2.14434   2.19831   2.22420
 Alpha virt. eigenvalues --    2.25729   2.31206   2.35927   2.36635   2.43941
 Alpha virt. eigenvalues --    2.45070   2.45203   2.52788   2.59115   2.60572
 Alpha virt. eigenvalues --    2.61833   2.73567   2.75219   2.83272   2.92029
 Alpha virt. eigenvalues --    2.93344   2.97210   2.99429   3.00981   3.04763
 Alpha virt. eigenvalues --    3.25730   4.08917   4.36659   4.64679   4.71832
 Alpha virt. eigenvalues --    4.88804   5.09732
          Condensed to atoms (all electrons):
               1          2          3          4          5          6
     1  N    7.068192   0.327069   0.289491  -0.033829  -0.047918  -0.085229
     2  H    0.327069   0.437714  -0.042539  -0.005522   0.005754  -0.000515
     3  C    0.289491  -0.042539   4.980530   0.402615   0.405478   0.334431
     4  H   -0.033829  -0.005522   0.402615   0.533928  -0.027505  -0.035092
     5  H   -0.047918   0.005754   0.405478  -0.027505   0.550918  -0.053669
     6  C   -0.085229  -0.000515   0.334431  -0.035092  -0.053669   5.269373
     7  H    0.002719   0.000989  -0.040896  -0.004453   0.004008   0.391907
     8  H    0.003750   0.000000  -0.028307   0.000955  -0.001696   0.391139
     9  C   -0.085974  -0.000719  -0.061730   0.003975  -0.000312   0.320378
    10  H    0.002784   0.000970   0.003369  -0.000167  -0.000018  -0.038190
    11  H    0.004400  -0.000031   0.003047  -0.000066   0.000167  -0.034493
    12  C    0.296701  -0.042617  -0.095599   0.006231  -0.001930  -0.060390
    13  H   -0.033888  -0.005497   0.006242  -0.000119  -0.000171   0.003858
    14  H   -0.047844   0.005790  -0.001934  -0.000175   0.003459  -0.000442
    15  O   -0.000001   0.000000   0.000164  -0.000010   0.000343  -0.012833
    16  H    0.000000  -0.000000  -0.000015   0.000000  -0.000011   0.000682
    17  H    0.000000  -0.000000  -0.000021   0.000002  -0.000017   0.000690
               7          8          9         10         11         12
     1  N    0.002719   0.003750  -0.085974   0.002784   0.004400   0.296701
     2  H    0.000989   0.000000  -0.000719   0.000970  -0.000031  -0.042617
     3  C   -0.040896  -0.028307  -0.061730   0.003369   0.003047  -0.095599
     4  H   -0.004453   0.000955   0.003975  -0.000167  -0.000066   0.006231
     5  H    0.004008  -0.001696  -0.000312  -0.000018   0.000167  -0.001930
     6  C    0.391907   0.391139   0.320378  -0.038190  -0.034493  -0.060390
     7  H    0.565139  -0.021081  -0.040564  -0.006721   0.002781   0.003433
     8  H   -0.021081   0.416200  -0.028095   0.002151  -0.002695   0.002252
     9  C   -0.040564  -0.028095   5.198864   0.395159   0.391306   0.335522
    10  H   -0.006721   0.002151   0.395159   0.554688  -0.027595  -0.038761
    11  H    0.002781  -0.002695   0.391306  -0.027595   0.540727  -0.033224
    12  C    0.003433   0.002252   0.335522  -0.038761  -0.033224   4.973873
    13  H   -0.000171  -0.000051  -0.035680  -0.004400   0.001462   0.402888
    14  H   -0.000015   0.000168  -0.053779   0.003947  -0.002684   0.405327
    15  O    0.000301  -0.003320   0.000272  -0.000008   0.000294  -0.000010
    16  H   -0.000016   0.000777  -0.000030   0.000001  -0.000029   0.000001
    17  H   -0.000028   0.000806  -0.000012   0.000000  -0.000008   0.000000
              13         14         15         16         17
     1  N   -0.033888  -0.047844  -0.000001   0.000000   0.000000
     2  H   -0.005497   0.005790   0.000000  -0.000000  -0.000000
     3  C    0.006242  -0.001934   0.000164  -0.000015  -0.000021
     4  H   -0.000119  -0.000175  -0.000010   0.000000   0.000002
     5  H   -0.000171   0.003459   0.000343  -0.000011  -0.000017
     6  C    0.003858  -0.000442  -0.012833   0.000682   0.000690
     7  H   -0.000171  -0.000015   0.000301  -0.000016  -0.000028
     8  H   -0.000051   0.000168  -0.003320   0.000777   0.000806
     9  C   -0.035680  -0.053779   0.000272  -0.000030  -0.000012
    10  H   -0.004400   0.003947  -0.000008   0.000001   0.000000
    11  H    0.001462  -0.002684   0.000294  -0.000029  -0.000008
    12  C    0.402888   0.405327  -0.000010   0.000001   0.000000
    13  H    0.530844  -0.027427   0.000000  -0.000000  -0.000000
    14  H   -0.027427   0.553007  -0.000001   0.000000   0.000000
    15  O    0.000000  -0.000001   8.354937   0.263032   0.263063
    16  H   -0.000000   0.000000   0.263032   0.313090  -0.017103
    17  H   -0.000000   0.000000   0.263063  -0.017103   0.312752
 Mulliken charges:
               1
     1  N   -0.660423
     2  H    0.319155
     3  C   -0.154326
     4  H    0.159232
     5  H    0.163121
     6  C   -0.391605
     7  H    0.142668
     8  H    0.267045
     9  C   -0.338581
    10  H    0.152789
    11  H    0.156639
    12  C   -0.153698
    13  H    0.162110
    14  H    0.162604
    15  O   -0.866223
    16  H    0.439620
    17  H    0.439875
 Sum of Mulliken charges =  -0.00000
 Mulliken charges with hydrogens summed into heavy atoms:
               1
     1  N   -0.341269
     3  C    0.168027
     6  C    0.018107
     9  C   -0.029154
    12  C    0.171017
    15  O    0.013272
 Electronic spatial extent (au):  <R**2>=            902.6281
 Charge=             -0.0000 electrons
 Dipole moment (field-independent basis, Debye):
    X=             -3.6186    Y=              0.8104    Z=              0.3573  Tot=              3.7254
 Quadrupole moment (field-independent basis, Debye-Ang):
   XX=            -25.9565   YY=            -38.3218   ZZ=            -38.8929
   XY=              2.7720   XZ=              6.7907   YZ=             -2.9716
 Traceless Quadrupole moment (field-independent basis, Debye-Ang):
   XX=              8.4339   YY=             -3.9314   ZZ=             -4.5025
   XY=              2.7720   XZ=              6.7907   YZ=             -2.9716
 Octapole moment (field-independent basis, Debye-Ang**2):
  XXX=           -102.5680  YYY=             -1.2447  ZZZ=             -1.5678  XYY=            -15.3423
  XXY=              5.1901  XXZ=             -5.0026  XZZ=             -6.3417  YZZ=              0.5865
  YYZ=              0.2273  XYZ=              0.0615
 Hexadecapole moment (field-independent basis, Debye-Ang**3):
 XXXX=           -399.2465 YYYY=           -236.5460 ZZZZ=           -109.8509 XXXY=             27.0450
 XXXZ=             83.7435 YYYX=             -0.3076 YYYZ=             -6.2356 ZZZX=             11.5364
 ZZZY=             -2.5973 XXYY=           -143.6109 XXZZ=           -140.4051 YYZZ=            -57.5786
 XXYZ=            -23.0183 YYXZ=             10.8341 ZZXY=             -2.7141
 N-N= 2.499369403127D+02 E-N=-1.172966266456D+03  KE= 2.866854480262D+02
 Calling FoFJK, ICntrl=      2127 FMM=F ISym2X=0 I1Cent= 0 IOpClX= 0 NMat=1 NMatS=1 NMatT=0.
 ***** Axes restored to original set *****
 -------------------------------------------------------------------
 Center     Atomic                   Forces (Hartrees/Bohr)
 Number     Number              X              Y              Z
 -------------------------------------------------------------------
      1        7           0.013188474   -0.004274957    0.005923028
      2        1          -0.009244587   -0.000154595   -0.013090197
      3        6          -0.002604994    0.004736180    0.001976377
      4        1          -0.002717747   -0.006806608   -0.002727291
      5        1           0.004208013   -0.000447061    0.005058474
      6        6           0.005591553    0.003748071   -0.006116240
      7        1          -0.005036010   -0.001515270   -0.001607787
      8        1          -0.003655225   -0.000890828    0.015949473
      9        6           0.001538710   -0.004649842    0.001269246
     10        1          -0.003520271    0.001695753   -0.004340766
     11        1           0.000137513    0.004095234    0.005337474
     12        6          -0.006327307   -0.000364966    0.002888279
     13        1           0.001635448    0.004180427   -0.005594774
     14        1           0.004583740    0.000025134    0.005387230
     15        8           0.005488802    0.001426658   -0.024028106
     16        1           0.000294594    0.005904698    0.007689289
     17        1          -0.003560706   -0.006708030    0.006026289
 -------------------------------------------------------------------
 Cartesian Forces:  Max     0.024028106 RMS     0.006349273
 -----------------------------------------------------------------------------------------------
                       Internal Coordinate Forces (Hartree/Bohr or radian)
  Cent   Atom   N1       Length/X         N2         Alpha/Y        N3         Beta/Z          J
 -----------------------------------------------------------------------------------------------
      1  N            0.013188(     1)     -0.004275(    19)      0.005923(    37)
      2  H           -0.009245(     2)     -0.000155(    20)     -0.013090(    38)
      3  C           -0.002605(     3)      0.004736(    21)      0.001976(    39)
      4  H           -0.002718(     4)     -0.006807(    22)     -0.002727(    40)
      5  H            0.004208(     5)     -0.000447(    23)      0.005058(    41)
      6  C            0.005959(     6)      0.003739(    24)     -0.006030(    42)
      7  H           -0.005036(     7)     -0.001515(    25)     -0.001608(    43)
      8  H           -0.001808(     8)     -0.000256(    26)      0.005549(    44)
      9  C            0.001547(     9)     -0.004653(    27)      0.001271(    45)
     10  H           -0.003520(    10)      0.001696(    28)     -0.004341(    46)
     11  H            0.000138(    11)      0.004095(    29)      0.005337(    47)
     12  C           -0.006327(    12)     -0.000365(    30)      0.002888(    48)
     13  H            0.001635(    13)      0.004180(    31)     -0.005595(    49)
     14  H            0.004584(    14)      0.000025(    32)      0.005387(    50)
         X        8  -0.000000(    15)      6  -0.000224(    33)      9  -0.000023(    51)     0
     15  O        8   0.010565(    16)     15  -0.000224(    34)      6   0.000776(    52)     0
     16  H       16  -0.009588(    17)      8  -0.002648(    35)     15   0.000015(    53)     0
     17  H       16  -0.009567(    18)      8  -0.002835(    36)     15  -0.000039(    54)     0
 -----------------------------------------------------------------------------------------------
 Internal  Forces:  Max     0.013188474 RMS     0.004977735

 GradGradGradGradGradGradGradGradGradGradGradGradGradGradGradGradGradGrad
 Berny optimization.
 Search for a local minimum.
 Step number   1 out of a maximum of  100
 All quantities printed in internal units (Hartrees-Bohrs-Radians)
 Second derivative matrix not updated -- first step.
 The second derivative matrix:
                          rAH       dih
           rAH          0.04307
           dih          0.00000   0.00000
 ITU=  0
     Eigenvalues ---    0.00000   0.04307
 RFO step:  Lambda=-2.45257616D-03 EMin= 0.00000000D+00
 Linear search not attempted -- first point.
 Variable       Old X    -DE/DX   Delta X   Delta X   Delta X     New X
                                 (Linear)    (Quad)   (Total)
   rAH        3.77945   0.01057   0.00000   0.23211   0.23211   4.01156
   dih        0.00000  -0.00002   0.00000  -0.00957  -0.00957  -0.00957
         Item               Value     Threshold  Converged?
 Maximum Force            0.010565     0.000450     NO 
 RMS     Force            0.007471     0.000300     NO 
 Maximum Displacement     0.232112     0.001800     NO 
 RMS     Displacement     0.164267     0.001200     NO 
 Predicted change in Energy=-1.292467D-03
 GradGradGradGradGradGradGradGradGradGradGradGradGradGradGradGradGradGrad

 ---------------------------------------------------------------------------------------------------
                            Z-MATRIX (ANGSTROMS AND DEGREES)
   CD    Cent   Atom    N1       Length/X        N2       Alpha/Y        N3        Beta/Z          J
 ---------------------------------------------------------------------------------------------------
      1      1  N        0   0.844000          0.456000          0.923000
      2      2  H        0   1.372000          0.495000          1.798000
      3      3  C        0   1.643000          1.125000         -0.113000
      4      4  H        0   2.000000          2.097000          0.243000
      5      5  H        0   0.987000          1.307000         -0.971000
      6      6  C        0   2.779000          0.153000         -0.504000
      7      7  H        0   3.689000          0.384000          0.059000
      8      8  H        0   3.031000          0.222000         -1.566000
      9      9  C        0   2.231000         -1.240000         -0.112000
     10     10  H        0   2.866000         -1.707000          0.647000
     11     11  H        0   2.185000         -1.928000         -0.962000
     12     12  C        0   0.830000         -0.941000          0.469000
     13     13  H        0   0.542000         -1.609000          1.286000
     14     14  H        0   0.068000         -1.027000         -0.314000
     15         X        8   1.000000(    14)      6   90.000(    30)      9   -0.548(    45)      0
     16     15  O        8   2.122828(    15)     15   90.000(    31)      6  180.000(    46)      0
     17     16  H       16   0.957200(    16)      8  127.740(    32)     15    0.000(    47)      0
     18     17  H       16   0.957200(    17)      8  127.740(    33)     15  180.000(    48)      0
 ---------------------------------------------------------------------------------------------------
                         Z-Matrix orientation:                         
 ---------------------------------------------------------------------
 Center     Atomic      Atomic             Coordinates (Angstroms)
 Number     Number       Type             X           Y           Z
 ---------------------------------------------------------------------
      1          7           0        0.844000    0.456000    0.923000
      2          1           0        1.372000    0.495000    1.798000
      3          6           0        1.643000    1.125000   -0.113000
      4          1           0        2.000000    2.097000    0.243000
      5          1           0        0.987000    1.307000   -0.971000
      6          6           0        2.779000    0.153000   -0.504000
      7          1           0        3.689000    0.384000    0.059000
      8          1           0        3.031000    0.222000   -1.566000
      9          6           0        2.231000   -1.240000   -0.112000
     10          1           0        2.866000   -1.707000    0.647000
     11          1           0        2.185000   -1.928000   -0.962000
     12          6           0        0.830000   -0.941000    0.469000
     13          1           0        0.542000   -1.609000    1.286000
     14          1           0        0.068000   -1.027000   -0.314000
     15         -1           0        2.752235   -0.729793   -1.693987
     16          8           0        3.520136    0.355930   -3.627361
     17          1           0        3.444122   -0.327566   -4.293158
     18          1           0        3.866145    1.113354   -4.099398
 ---------------------------------------------------------------------
                    Distance matrix (angstroms):
                    1          2          3          4          5
     1  N    0.000000
     2  H    1.022707   0.000000
     3  C    1.469441   2.030335   0.000000
     4  H    2.119343   2.319227   1.094974   0.000000
     5  H    2.081318   2.911173   1.095274   1.767502   0.000000
     6  C    2.423296   2.719525   1.545368   2.223508   2.181987
     7  H    2.974173   2.899126   2.182838   2.412664   3.035397
     8  H    3.321573   3.760759   2.202989   2.801975   2.389390
     9  C    2.423099   2.719597   2.437000   3.363771   2.961862
    10  H    2.973757   2.899248   3.177035   3.922192   3.902917
    11  H    3.321891   3.761582   3.214868   4.205577   3.449712
    12  C    1.468986   2.030296   2.295223   3.263345   2.674276
    13  H    2.118301   2.319021   3.262539   4.116801   3.714180
    14  H    2.081258   2.911605   2.674347   3.715138   2.593023
    15  X    3.449070   3.949575   2.677719   3.508352   2.790571
    16  O    5.279915   5.836811   4.057812   4.507974   3.791776
    17  H    5.880724   6.486333   4.777836   5.342354   4.443646
    18  H    5.898301   6.432918   4.564415   4.827679   4.256037
                    6          7          8          9         10
     6  C    0.000000
     7  H    1.094728   0.000000
     8  H    1.093668   1.760634   0.000000
     9  C    1.547390   2.189151   2.211687   0.000000
    10  H    2.189057   2.322790   2.940346   1.094255   0.000000
    11  H    2.212049   2.941054   2.388102   1.094514   1.761103
    12  C    2.437656   3.177673   3.215306   1.545886   2.182598
    13  H    3.363467   3.921886   4.204948   2.223350   2.412240
    14  H    2.962773   3.904061   3.450634   2.182829   3.035577
    15  X    1.481927   2.278383   1.000000   1.742034   2.539311
    16  O    3.216496   3.690333   2.122828   4.070212   4.791006
    17  H    3.876990   4.416738   2.812488   4.448178   5.161611
    18  H    3.876990   4.225590   2.812488   4.910328   5.610970
                   11         12         13         14         15
    11  H    0.000000
    12  C    2.204077   0.000000
    13  H    2.802626   1.093918   0.000000
    14  H    2.390271   1.095960   1.767314   0.000000
    15  X    1.514352   2.901398   3.812934   3.032789   0.000000
    16  O    3.755406   5.069421   6.072179   4.980773   2.346572
    17  H    3.904279   5.467000   6.418052   5.265084   2.719593
    18  H    4.681810   5.857372   6.889388   5.773756   3.228620
                   16         17         18
    16  O    0.000000
    17  H    0.957200   0.000000
    18  H    0.957200   1.513901   0.000000
 Stoichiometry    C4H11NO
 Framework group  C1[X(C4H11NO)]
 Deg. of freedom    45
 Full point group                 C1      NOp   1
 Largest Abelian subgroup         C1      NOp   1
 Largest concise Abelian subgroup C1      NOp   1
                         Standard orientation:                         
 ---------------------------------------------------------------------
 Center     Atomic      Atomic             Coordinates (Angstroms)
 Number     Number       Type             X           Y           Z
 ---------------------------------------------------------------------
      1          7           0        1.899729   -0.705625   -0.219808
      2          1           0        2.380634   -0.752505    0.681559
      3          6           0        0.532163   -1.206675   -0.024945
      4          1           0        0.543624   -2.158515    0.516200
      5          1           0        0.103870   -1.393883   -1.015472
      6          6           0       -0.257494   -0.092336    0.698139
      7          1           0       -0.258171   -0.265575    1.779073
      8          1           0       -1.302351   -0.055155    0.377201
      9          6           0        0.517732    1.201100    0.351060
     10          1           0        0.905346    1.675960    1.257514
     11          1           0       -0.106622    1.941230   -0.159185
     12          6           0        1.682572    0.711588   -0.539606
     13          1           0        2.606198    1.282586   -0.407196
     14          1           0        1.403353    0.773195   -1.597609
     15          8           0       -3.330435    0.017015   -0.245746
     16          1           0       -3.782369    0.735831   -0.687664
     17          1           0       -3.997970   -0.661965   -0.147684
 ---------------------------------------------------------------------
 Rotational constants (GHZ):           5.7759858           1.4875719           1.3214715
 Standard basis: 6-31G(d) (6D, 7F)
 There are   112 symmetry adapted cartesian basis functions of A   symmetry.
 There are   112 symmetry adapted basis functions of A   symmetry.
   112 basis functions,   212 primitive gaussians,   112 cartesian basis functions
    25 alpha electrons       25 beta electrons
       nuclear repulsion energy       248.4825540442 Hartrees.
 NAtoms=   17 NActive=   17 NUniq=   17 SFac= 1.00D+00 NAtFMM=   60 NAOKFM=F Big=F
 Integral buffers will be    131072 words long.
 Raffenetti 1 integral format.
 Two-electron integral symmetry is turned on.
 One-electron integrals computed using PRISM.
 NBasis=   112 RedAO= T EigKep=  3.09D-03  NBF=   112
 NBsUse=   112 1.00D-06 EigRej= -1.00D+00 NBFU=   112
 Initial guess from the checkpoint file:  "PRLD-DON-H32.chk"
 B after Tr=    -0.000000    0.000000    0.000000
         Rot=    0.999997   -0.000376   -0.002506   -0.000359 Ang=  -0.29 deg.
 ExpMin= 1.61D-01 ExpMax= 5.48D+03 ExpMxC= 8.25D+02 IAcc=2 IRadAn=         4 AccDes= 0.00D+00
 Harris functional with IExCor=  205 and IRadAn=       4 diagonalized for initial guess.
 HarFok:  IExCor=  205 AccDes= 0.00D+00 IRadAn=         4 IDoV= 1 UseB2=F ITyADJ=14
 ICtDFT=  3500011 ScaDFX=  1.000000  1.000000  1.000000  1.000000
 FoFCou: FMM=F IPFlag=           0 FMFlag=      100000 FMFlg1=           0
         NFxFlg=           0 DoJE=T BraDBF=F KetDBF=T FulRan=T
         wScrn=  0.000000 ICntrl=       500 IOpCl=  0 I1Cent=   200000004 NGrid=           0
         NMat0=    1 NMatS0=      1 NMatT0=    0 NMatD0=    1 NMtDS0=    0 NMtDT0=    0
 Petite list used in FoFCou.
 Keep R1 ints in memory in canonical form, NReq=20923689.
 Requested convergence on RMS density matrix=1.00D-08 within 128 cycles.
 Requested convergence on MAX density matrix=1.00D-06.
 Requested convergence on             energy=1.00D-06.
 No special actions if energy rises.
 SCF Done:  E(RHF) =  -287.152295471     A.U. after    9 cycles
            NFock=  9  Conv=0.83D-08     -V/T= 2.0017
 Calling FoFJK, ICntrl=      2127 FMM=F ISym2X=0 I1Cent= 0 IOpClX= 0 NMat=1 NMatS=1 NMatT=0.
 ***** Axes restored to original set *****
 -------------------------------------------------------------------
 Center     Atomic                   Forces (Hartrees/Bohr)
 Number     Number              X              Y              Z
 -------------------------------------------------------------------
      1        7           0.013528192   -0.004312320    0.005811816
      2        1          -0.009287471   -0.000132747   -0.013056381
      3        6          -0.002885858    0.005020750    0.001805914
      4        1          -0.002682140   -0.006871783   -0.002762208
      5        1           0.004274934   -0.000465079    0.005115673
      6        6           0.005681651    0.003641008   -0.006174570
      7        1          -0.005087104   -0.001525701   -0.001976948
      8        1          -0.002925731   -0.000682472    0.012878199
      9        6           0.001492203   -0.004894149    0.001035398
     10        1          -0.003490153    0.001802261   -0.004363001
     11        1           0.000172490    0.004191184    0.005406777
     12        6          -0.006409023   -0.000363230    0.002841717
     13        1           0.001678230    0.004187245   -0.005618516
     14        1           0.004615697    0.000024913    0.005401390
     15        8           0.004669049    0.001218460   -0.020399224
     16        1           0.000247495    0.006084340    0.007874529
     17        1          -0.003592460   -0.006922682    0.006179434
 -------------------------------------------------------------------
 Cartesian Forces:  Max     0.020399224 RMS     0.005980404
 -----------------------------------------------------------------------------------------------
                       Internal Coordinate Forces (Hartree/Bohr or radian)
  Cent   Atom   N1       Length/X         N2         Alpha/Y        N3         Beta/Z          J
 -----------------------------------------------------------------------------------------------
      1  N            0.013528(     1)     -0.004312(    19)      0.005812(    37)
      2  H           -0.009287(     2)     -0.000133(    20)     -0.013056(    38)
      3  C           -0.002886(     3)      0.005021(    21)      0.001806(    39)
      4  H           -0.002682(     4)     -0.006872(    22)     -0.002762(    40)
      5  H            0.004275(     5)     -0.000465(    23)      0.005116(    41)
      6  C            0.005995(     6)      0.003623(    24)     -0.006101(    42)
      7  H           -0.005087(     7)     -0.001526(    25)     -0.001977(    43)
      8  H           -0.001924(     8)     -0.000282(    26)      0.006458(    44)
      9  C            0.001501(     9)     -0.004897(    27)      0.001037(    45)
     10  H           -0.003490(    10)      0.001802(    28)     -0.004363(    46)
     11  H            0.000172(    11)      0.004191(    29)      0.005407(    47)
     12  C           -0.006409(    12)     -0.000363(    30)      0.002842(    48)
     13  H            0.001678(    13)      0.004187(    31)     -0.005619(    49)
     14  H            0.004616(    14)      0.000025(    32)      0.005401(    50)
         X        8  -0.000000(    15)      6  -0.000165(    33)      9  -0.000025(    51)     0
     15  O        8   0.006491(    16)     15  -0.000165(    34)      6   0.000676(    52)     0
     16  H       16  -0.009841(    17)      8  -0.002703(    35)     15   0.000010(    53)     0
     17  H       16  -0.009824(    18)      8  -0.002864(    36)     15  -0.000035(    54)     0
 -----------------------------------------------------------------------------------------------
 Internal  Forces:  Max     0.013528192 RMS     0.004927866

 GradGradGradGradGradGradGradGradGradGradGradGradGradGradGradGradGradGrad
 Berny optimization.
 Search for a local minimum.
 Step number   2 out of a maximum of  100
 All quantities printed in internal units (Hartrees-Bohrs-Radians)
 Update second derivatives using D2CorN and points    1    2
 DE= -1.94D-03 DEPred=-1.29D-03 R= 1.50D+00
 TightC=F SS=  1.41D+00  RLast= 2.32D-01 DXNew= 5.0454D-01 6.9693D-01
 Trust test= 1.50D+00 RLast= 2.32D-01 DXMaxT set to 5.05D-01
 The second derivative matrix:
                          rAH       dih
           rAH          0.01760
           dih          0.00053  -0.00000
 ITU=  1  0
     Eigenvalues ---   -0.00002   0.01761
 RFO step:  Lambda=-1.04439580D-04 EMin=-1.61114572D-05
 Quartic linear search produced a step of  2.00000.
 Maximum step size (   0.505) exceeded in Quadratic search.
    -- Step size scaled by   0.464
 Variable       Old X    -DE/DX   Delta X   Delta X   Delta X     New X
                                 (Linear)    (Quad)   (Total)
   rAH        4.01156   0.00649   0.46422   0.01495   0.47917   4.49073
   dih       -0.00957  -0.00002  -0.01914  -0.50432  -0.52346  -0.53303
         Item               Value     Threshold  Converged?
 Maximum Force            0.006491     0.000450     NO 
 RMS     Force            0.004590     0.000300     NO 
 Maximum Displacement     0.523460     0.001800     NO 
 RMS     Displacement     0.501804     0.001200     NO 
 Predicted change in Energy=-1.235373D-03
 GradGradGradGradGradGradGradGradGradGradGradGradGradGradGradGradGradGrad

 ---------------------------------------------------------------------------------------------------
                            Z-MATRIX (ANGSTROMS AND DEGREES)
   CD    Cent   Atom    N1       Length/X        N2       Alpha/Y        N3        Beta/Z          J
 ---------------------------------------------------------------------------------------------------
      1      1  N        0   0.844000          0.456000          0.923000
      2      2  H        0   1.372000          0.495000          1.798000
      3      3  C        0   1.643000          1.125000         -0.113000
      4      4  H        0   2.000000          2.097000          0.243000
      5      5  H        0   0.987000          1.307000         -0.971000
      6      6  C        0   2.779000          0.153000         -0.504000
      7      7  H        0   3.689000          0.384000          0.059000
      8      8  H        0   3.031000          0.222000         -1.566000
      9      9  C        0   2.231000         -1.240000         -0.112000
     10     10  H        0   2.866000         -1.707000          0.647000
     11     11  H        0   2.185000         -1.928000         -0.962000
     12     12  C        0   0.830000         -0.941000          0.469000
     13     13  H        0   0.542000         -1.609000          1.286000
     14     14  H        0   0.068000         -1.027000         -0.314000
     15         X        8   1.000000(    14)      6   90.000(    30)      9  -30.540(    45)      0
     16     15  O        8   2.376394(    15)     15   90.000(    31)      6  180.000(    46)      0
     17     16  H       16   0.957200(    16)      8  127.740(    32)     15    0.000(    47)      0
     18     17  H       16   0.957200(    17)      8  127.740(    33)     15  180.000(    48)      0
 ---------------------------------------------------------------------------------------------------
                         Z-Matrix orientation:                         
 ---------------------------------------------------------------------
 Center     Atomic      Atomic             Coordinates (Angstroms)
 Number     Number       Type             X           Y           Z
 ---------------------------------------------------------------------
      1          7           0        0.844000    0.456000    0.923000
      2          1           0        1.372000    0.495000    1.798000
      3          6           0        1.643000    1.125000   -0.113000
      4          1           0        2.000000    2.097000    0.243000
      5          1           0        0.987000    1.307000   -0.971000
      6          6           0        2.779000    0.153000   -0.504000
      7          1           0        3.689000    0.384000    0.059000
      8          1           0        3.031000    0.222000   -1.566000
      9          6           0        2.231000   -1.240000   -0.112000
     10          1           0        2.866000   -1.707000    0.647000
     11          1           0        2.185000   -1.928000   -0.962000
     12          6           0        0.830000   -0.941000    0.469000
     13          1           0        0.542000   -1.609000    1.286000
     14          1           0        0.068000   -1.027000   -0.314000
     15         -1           0        3.255605   -0.752399   -1.576012
     16          8           0        3.578562    0.371928   -3.873584
     17          1           0        3.883574   -0.328680   -4.450081
     18          1           0        3.543545    1.146463   -4.434923
 ---------------------------------------------------------------------
                    Distance matrix (angstroms):
                    1          2          3          4          5
     1  N    0.000000
     2  H    1.022707   0.000000
     3  C    1.469441   2.030335   0.000000
     4  H    2.119343   2.319227   1.094974   0.000000
     5  H    2.081318   2.911173   1.095274   1.767502   0.000000
     6  C    2.423296   2.719525   1.545368   2.223508   2.181987
     7  H    2.974173   2.899126   2.182838   2.412664   3.035397
     8  H    3.321573   3.760759   2.202989   2.801975   2.389390
     9  C    2.423099   2.719597   2.437000   3.363771   2.961862
    10  H    2.973757   2.899248   3.177035   3.922192   3.902917
    11  H    3.321891   3.761582   3.214868   4.205577   3.449712
    12  C    1.468986   2.030296   2.295223   3.263345   2.674276
    13  H    2.118301   2.319021   3.262539   4.116801   3.714180
    14  H    2.081258   2.911605   2.674347   3.715138   2.593023
    15  X    3.677108   4.060533   2.874982   3.606164   3.123096
    16  O    5.521967   6.086948   4.295988   4.734342   4.001943
    17  H    6.222920   6.784170   5.093489   5.608635   4.813480
    18  H    6.039174   6.632446   4.721393   5.016873   4.308185
                    6          7          8          9         10
     6  C    0.000000
     7  H    1.094728   0.000000
     8  H    1.093668   1.760634   0.000000
     9  C    1.547390   2.189151   2.211687   0.000000
    10  H    2.189057   2.322790   2.940346   1.094255   0.000000
    11  H    2.212049   2.941054   2.388102   1.094514   1.761103
    12  C    2.437656   3.177673   3.215306   1.545886   2.182598
    13  H    3.363467   3.921886   4.204948   2.223350   2.412240
    14  H    2.962773   3.904061   3.450634   2.182829   3.035577
    15  X    1.481927   2.037768   1.000000   1.852269   2.450477
    16  O    3.470062   3.934153   2.376394   4.308567   5.026467
    17  H    4.125973   4.569199   3.057459   4.730798   5.377310
    18  H    4.125973   4.560466   3.057459   5.109368   5.867475
                   11         12         13         14         15
    11  H    0.000000
    12  C    2.204077   0.000000
    13  H    2.802626   1.093918   0.000000
    14  H    2.390271   1.095960   1.767314   0.000000
    15  X    1.704478   3.178239   4.035905   3.439317   0.000000
    16  O    3.963459   5.304377   6.306036   5.191501   2.578226
    17  H    4.196390   5.822079   6.760766   5.670399   2.972230
    18  H    4.833132   5.980743   7.023589   5.812517   3.444119
                   16         17         18
    16  O    0.000000
    17  H    0.957200   0.000000
    18  H    0.957200   1.513901   0.000000
 Stoichiometry    C4H11NO
 Framework group  C1[X(C4H11NO)]
 Deg. of freedom    45
 Full point group                 C1      NOp   1
 Largest Abelian subgroup         C1      NOp   1
 Largest concise Abelian subgroup C1      NOp   1
                         Standard orientation:                         
 ---------------------------------------------------------------------
 Center     Atomic      Atomic             Coordinates (Angstroms)
 Number     Number       Type             X           Y           Z
 ---------------------------------------------------------------------
      1          7           0        1.946264   -0.705735   -0.227449
      2          1           0        2.444170   -0.733176    0.665449
      3          6           0        0.584231   -1.206692    0.003127
      4          1           0        0.608940   -2.147466    0.562862
      5          1           0        0.138009   -1.414925   -0.975213
      6          6           0       -0.195304   -0.080359    0.718572
      7          1           0       -0.175109   -0.231915    1.802570
      8          1           0       -1.246121   -0.052603    0.416709
      9          6           0        0.569071    1.208080    0.331179
     10          1           0        0.972110    1.702106    1.220500
     11          1           0       -0.067152    1.936052   -0.181885
     12          6           0        1.718549    0.704162   -0.571335
     13          1           0        2.642647    1.280338   -0.467789
     14          1           0        1.419301    0.743768   -1.624906
     15          8           0       -3.529408    0.007708   -0.239199
     16          1           0       -4.097418    0.774513   -0.314072
     17          1           0       -4.087252   -0.729358   -0.487745
 ---------------------------------------------------------------------
 Rotational constants (GHZ):           5.7268622           1.3624258           1.2229511
 Standard basis: 6-31G(d) (6D, 7F)
 There are   112 symmetry adapted cartesian basis functions of A   symmetry.
 There are   112 symmetry adapted basis functions of A   symmetry.
   112 basis functions,   212 primitive gaussians,   112 cartesian basis functions
    25 alpha electrons       25 beta electrons
       nuclear repulsion energy       245.7366987297 Hartrees.
 NAtoms=   17 NActive=   17 NUniq=   17 SFac= 1.00D+00 NAtFMM=   60 NAOKFM=F Big=F
 Integral buffers will be    131072 words long.
 Raffenetti 1 integral format.
 Two-electron integral symmetry is turned on.
 One-electron integrals computed using PRISM.
 NBasis=   112 RedAO= T EigKep=  3.12D-03  NBF=   112
 NBsUse=   112 1.00D-06 EigRej= -1.00D+00 NBFU=   112
 Initial guess from the checkpoint file:  "PRLD-DON-H32.chk"
 B after Tr=    -0.000000    0.000000    0.000000
         Rot=    0.999974    0.005123   -0.004812   -0.001388 Ang=   0.82 deg.
 ExpMin= 1.61D-01 ExpMax= 5.48D+03 ExpMxC= 8.25D+02 IAcc=2 IRadAn=         4 AccDes= 0.00D+00
 Harris functional with IExCor=  205 and IRadAn=       4 diagonalized for initial guess.
 HarFok:  IExCor=  205 AccDes= 0.00D+00 IRadAn=         4 IDoV= 1 UseB2=F ITyADJ=14
 ICtDFT=  3500011 ScaDFX=  1.000000  1.000000  1.000000  1.000000
 FoFCou: FMM=F IPFlag=           0 FMFlag=      100000 FMFlg1=           0
         NFxFlg=           0 DoJE=T BraDBF=F KetDBF=T FulRan=T
         wScrn=  0.000000 ICntrl=       500 IOpCl=  0 I1Cent=   200000004 NGrid=           0
         NMat0=    1 NMatS0=      1 NMatT0=    0 NMatD0=    1 NMtDS0=    0 NMtDT0=    0
 Petite list used in FoFCou.
 Keep R1 ints in memory in canonical form, NReq=20922990.
 Requested convergence on RMS density matrix=1.00D-08 within 128 cycles.
 Requested convergence on MAX density matrix=1.00D-06.
 Requested convergence on             energy=1.00D-06.
 No special actions if energy rises.
 SCF Done:  E(RHF) =  -287.154248729     A.U. after   12 cycles
            NFock= 12  Conv=0.50D-08     -V/T= 2.0017
 Calling FoFJK, ICntrl=      2127 FMM=F ISym2X=0 I1Cent= 0 IOpClX= 0 NMat=1 NMatS=1 NMatT=0.
 ***** Axes restored to original set *****
 -------------------------------------------------------------------
 Center     Atomic                   Forces (Hartrees/Bohr)
 Number     Number              X              Y              Z
 -------------------------------------------------------------------
      1        7           0.014033551   -0.004338992    0.005591559
      2        1          -0.009345024   -0.000073240   -0.013019690
      3        6          -0.003231707    0.005450305    0.001681470
      4        1          -0.002622239   -0.006972859   -0.002821722
      5        1           0.004272259   -0.000501478    0.005193673
      6        6           0.005722448    0.003359716   -0.005581099
      7        1          -0.005169778   -0.001484804   -0.002543739
      8        1          -0.002100293   -0.000440753    0.009426644
      9        6           0.001414467   -0.005301661    0.000642253
     10        1          -0.003436198    0.001979017   -0.004358069
     11        1           0.000176772    0.004366938    0.005492147
     12        6          -0.006565411   -0.000398238    0.002732090
     13        1           0.001749067    0.004206714   -0.005652147
     14        1           0.004690817    0.000016148    0.005426968
     15        8           0.003858653    0.001038096   -0.016695739
     16        1          -0.003288774    0.006408150    0.007318207
     17        1          -0.000158610   -0.007313057    0.007167195
 -------------------------------------------------------------------
 Cartesian Forces:  Max     0.016695739 RMS     0.005660770
 -----------------------------------------------------------------------------------------------
                       Internal Coordinate Forces (Hartree/Bohr or radian)
  Cent   Atom   N1       Length/X         N2         Alpha/Y        N3         Beta/Z          J
 -----------------------------------------------------------------------------------------------
      1  N            0.014034(     1)     -0.004339(    19)      0.005592(    37)
      2  H           -0.009345(     2)     -0.000073(    20)     -0.013020(    38)
      3  C           -0.003232(     3)      0.005450(    21)      0.001681(    39)
      4  H           -0.002622(     4)     -0.006973(    22)     -0.002822(    40)
      5  H            0.004272(     5)     -0.000501(    23)      0.005194(    41)
      6  C            0.005935(     6)      0.003369(    24)     -0.005530(    42)
      7  H           -0.005170(     7)     -0.001485(    25)     -0.002544(    43)
      8  H           -0.001918(     8)     -0.000312(    26)      0.007162(    44)
      9  C            0.001431(     9)     -0.005307(    27)      0.000646(    45)
     10  H           -0.003436(    10)      0.001979(    28)     -0.004358(    46)
     11  H            0.000177(    11)      0.004367(    29)      0.005492(    47)
     12  C           -0.006565(    12)     -0.000398(    30)      0.002732(    48)
     13  H            0.001749(    13)      0.004207(    31)     -0.005652(    49)
     14  H            0.004691(    14)      0.000016(    32)      0.005427(    50)
         X        8   0.000000(    15)      6   0.000107(    33)      9  -0.000048(    51)     0
     15  O        8   0.002250(    16)     15   0.000107(    34)      6   0.000493(    52)     0
     16  H       16  -0.010146(    17)      8  -0.002859(    35)     15  -0.000023(    53)     0
     17  H       16  -0.010115(    18)      8  -0.002897(    36)     15  -0.000025(    54)     0
 -----------------------------------------------------------------------------------------------
 Internal  Forces:  Max     0.014033551 RMS     0.004944240

 GradGradGradGradGradGradGradGradGradGradGradGradGradGradGradGradGradGrad
 Berny optimization.
 Search for a local minimum.
 Step number   3 out of a maximum of  100
 All quantities printed in internal units (Hartrees-Bohrs-Radians)
 Update second derivatives using D2CorN and points    3
 DE= -1.95D-03 DEPred=-1.24D-03 R= 1.58D+00
 TightC=F SS=  1.41D+00  RLast= 7.10D-01 DXNew= 8.4853D-01 2.1290D+00
 Trust test= 1.58D+00 RLast= 7.10D-01 DXMaxT set to 8.49D-01
 The second derivative matrix:
                          rAH       dih
           rAH          0.01760
           dih          0.00053  -0.00000
 ITU=  1  1  0
 Linear search step of   1.419 exceeds DXMaxT=   0.849 but not scaled.
 Quartic linear search produced a step of  2.00000.
 Variable       Old X    -DE/DX   Delta X   Delta X   Delta X     New X
                                 (Linear)    (Quad)   (Total)
   rAH        4.49073   0.00225   0.95834   0.00000   0.95834   5.44907
   dih       -0.53303  -0.00005  -1.04692   0.00000  -1.04692  -1.57995
         Item               Value     Threshold  Converged?
 Maximum Force            0.002250     0.000450     NO 
 RMS     Force            0.001591     0.000300     NO 
 Maximum Displacement     1.046920     0.001800     NO 
 RMS     Displacement     1.003608     0.001200     NO 
 Predicted change in Energy=-5.345527D-03
 GradGradGradGradGradGradGradGradGradGradGradGradGradGradGradGradGradGrad

 ---------------------------------------------------------------------------------------------------
                            Z-MATRIX (ANGSTROMS AND DEGREES)
   CD    Cent   Atom    N1       Length/X        N2       Alpha/Y        N3        Beta/Z          J
 ---------------------------------------------------------------------------------------------------
      1      1  N        0   0.844000          0.456000          0.923000
      2      2  H        0   1.372000          0.495000          1.798000
      3      3  C        0   1.643000          1.125000         -0.113000
      4      4  H        0   2.000000          2.097000          0.243000
      5      5  H        0   0.987000          1.307000         -0.971000
      6      6  C        0   2.779000          0.153000         -0.504000
      7      7  H        0   3.689000          0.384000          0.059000
      8      8  H        0   3.031000          0.222000         -1.566000
      9      9  C        0   2.231000         -1.240000         -0.112000
     10     10  H        0   2.866000         -1.707000          0.647000
     11     11  H        0   2.185000         -1.928000         -0.962000
     12     12  C        0   0.830000         -0.941000          0.469000
     13     13  H        0   0.542000         -1.609000          1.286000
     14     14  H        0   0.068000         -1.027000         -0.314000
     15         X        8   1.000000(    14)      6   90.000(    30)      9  -90.525(    45)      0
     16     15  O        8   2.883526(    15)     15   90.000(    31)      6  180.000(    46)      0
     17     16  H       16   0.957200(    16)      8  127.740(    32)     15    0.000(    47)      0
     18     17  H       16   0.957200(    17)      8  127.740(    33)     15  180.000(    48)      0
 ---------------------------------------------------------------------------------------------------
                         Z-Matrix orientation:                         
 ---------------------------------------------------------------------
 Center     Atomic      Atomic             Coordinates (Angstroms)
 Number     Number       Type             X           Y           Z
 ---------------------------------------------------------------------
      1          7           0        0.844000    0.456000    0.923000
      2          1           0        1.372000    0.495000    1.798000
      3          6           0        1.643000    1.125000   -0.113000
      4          1           0        2.000000    2.097000    0.243000
      5          1           0        0.987000    1.307000   -0.971000
      6          6           0        2.779000    0.153000   -0.504000
      7          1           0        3.689000    0.384000    0.059000
      8          1           0        3.031000    0.222000   -1.566000
      9          6           0        2.231000   -1.240000   -0.112000
     10          1           0        2.866000   -1.707000    0.647000
     11          1           0        2.185000   -1.928000   -0.962000
     12          6           0        0.830000   -0.941000    0.469000
     13          1           0        0.542000   -1.609000    1.286000
     14          1           0        0.068000   -1.027000   -0.314000
     15         -1           0        3.963192   -0.078580   -1.364331
     16          8           0        3.695414    0.403923   -4.366032
     17          1           0        4.536034    0.213363   -4.782296
     18          1           0        3.124788    0.668411   -5.087603
 ---------------------------------------------------------------------
                    Distance matrix (angstroms):
                    1          2          3          4          5
     1  N    0.000000
     2  H    1.022707   0.000000
     3  C    1.469441   2.030335   0.000000
     4  H    2.119343   2.319227   1.094974   0.000000
     5  H    2.081318   2.911173   1.095274   1.767502   0.000000
     6  C    2.423296   2.719525   1.545368   2.223508   2.181987
     7  H    2.974173   2.899126   2.182838   2.412664   3.035397
     8  H    3.321573   3.760759   2.202989   2.801975   2.389390
     9  C    2.423099   2.719597   2.437000   3.363771   2.961862
    10  H    2.973757   2.899248   3.177035   3.922192   3.902917
    11  H    3.321891   3.761582   3.214868   4.205577   3.449712
    12  C    1.468986   2.030296   2.295223   3.263345   2.674276
    13  H    2.118301   2.319021   3.262539   4.116801   3.714180
    14  H    2.081258   2.911605   2.674347   3.715138   2.593023
    15  X    3.904743   4.128390   2.897883   3.342272   3.306397
    16  O    6.008921   6.588007   4.777095   5.194623   4.435910
    17  H    6.800029   7.306896   5.568039   5.935753   5.321435
    18  H    6.432298   7.107311   5.210647   5.632170   4.682345
                    6          7          8          9         10
     6  C    0.000000
     7  H    1.094728   0.000000
     8  H    1.093668   1.760634   0.000000
     9  C    1.547390   2.189151   2.211687   0.000000
    10  H    2.189057   2.322790   2.940346   1.094255   0.000000
    11  H    2.212049   2.941054   2.388102   1.094514   1.761103
    12  C    2.437656   3.177673   3.215306   1.545886   2.182598
    13  H    3.363467   3.921886   4.204948   2.223350   2.412240
    14  H    2.962773   3.904061   3.450634   2.182829   3.035577
    15  X    1.481927   1.521523   1.000000   2.432636   2.810878
    16  O    3.977193   4.425081   2.883526   4.789966   5.502219
    17  H    4.625433   4.917798   3.551023   5.407135   5.996171
    18  H    4.625433   5.185243   3.551023   5.403472   6.212505
                   11         12         13         14         15
    11  H    0.000000
    12  C    2.204077   0.000000
    13  H    2.802626   1.093918   0.000000
    14  H    2.390271   1.095960   1.767314   0.000000
    15  X    2.596958   3.731188   4.590315   4.144299   0.000000
    16  O    4.393933   5.779009   6.778004   5.623578   3.052003
    17  H    4.970660   6.530188   7.489829   6.439526   3.477911
    18  H    4.964388   6.223511   7.244322   5.916558   3.888916
                   16         17         18
    16  O    0.000000
    17  H    0.957200   0.000000
    18  H    0.957200   1.513901   0.000000
 Stoichiometry    C4H11NO
 Framework group  C1[X(C4H11NO)]
 Deg. of freedom    45
 Full point group                 C1      NOp   1
 Largest Abelian subgroup         C1      NOp   1
 Largest concise Abelian subgroup C1      NOp   1
                         Standard orientation:                         
 ---------------------------------------------------------------------
 Center     Atomic      Atomic             Coordinates (Angstroms)
 Number     Number       Type             X           Y           Z
 ---------------------------------------------------------------------
      1          7           0        2.039028   -0.704075   -0.254767
      2          1           0        2.564179   -0.720641    0.622657
      3          6           0        0.686415   -1.206774    0.022706
      4          1           0        0.731473   -2.141560    0.591139
      5          1           0        0.211103   -1.426603   -0.939259
      6          6           0       -0.074623   -0.075417    0.750038
      7          1           0       -0.020673   -0.215559    1.834418
      8          1           0       -1.134294   -0.054049    0.480315
      9          6           0        0.673134    1.211240    0.326022
     10          1           0        1.101585    1.715781    1.197380
     11          1           0        0.019006    1.931846   -0.174780
     12          6           0        1.796090    0.701440   -0.606092
     13          1           0        2.720969    1.281505   -0.536950
     14          1           0        1.464533    0.729100   -1.650331
     15          8           0       -3.928184    0.002288   -0.230829
     16          1           0       -4.660433    0.322839    0.295754
     17          1           0       -4.331274   -0.295370   -1.046396
 ---------------------------------------------------------------------
 Rotational constants (GHZ):           5.6487478           1.1480728           1.0542210
 Standard basis: 6-31G(d) (6D, 7F)
 There are   112 symmetry adapted cartesian basis functions of A   symmetry.
 There are   112 symmetry adapted basis functions of A   symmetry.
   112 basis functions,   212 primitive gaussians,   112 cartesian basis functions
    25 alpha electrons       25 beta electrons
       nuclear repulsion energy       241.0853293150 Hartrees.
 NAtoms=   17 NActive=   17 NUniq=   17 SFac= 1.00D+00 NAtFMM=   60 NAOKFM=F Big=F
 Integral buffers will be    131072 words long.
 Raffenetti 1 integral format.
 Two-electron integral symmetry is turned on.
 One-electron integrals computed using PRISM.
 NBasis=   112 RedAO= T EigKep=  3.14D-03  NBF=   112
 NBsUse=   112 1.00D-06 EigRej= -1.00D+00 NBFU=   112
 Initial guess from the checkpoint file:  "PRLD-DON-H32.chk"
 B after Tr=    -0.000000   -0.000000   -0.000000
         Rot=    0.999967   -0.003328   -0.007232   -0.001345 Ang=  -0.93 deg.
 ExpMin= 1.61D-01 ExpMax= 5.48D+03 ExpMxC= 8.25D+02 IAcc=2 IRadAn=         4 AccDes= 0.00D+00
 Harris functional with IExCor=  205 and IRadAn=       4 diagonalized for initial guess.
 HarFok:  IExCor=  205 AccDes= 0.00D+00 IRadAn=         4 IDoV= 1 UseB2=F ITyADJ=14
 ICtDFT=  3500011 ScaDFX=  1.000000  1.000000  1.000000  1.000000
 FoFCou: FMM=F IPFlag=           0 FMFlag=      100000 FMFlg1=           0
         NFxFlg=           0 DoJE=T BraDBF=F KetDBF=T FulRan=T
         wScrn=  0.000000 ICntrl=       500 IOpCl=  0 I1Cent=   200000004 NGrid=           0
         NMat0=    1 NMatS0=      1 NMatT0=    0 NMatD0=    1 NMtDS0=    0 NMtDT0=    0
 Petite list used in FoFCou.
 Keep R1 ints in memory in canonical form, NReq=20921746.
 Requested convergence on RMS density matrix=1.00D-08 within 128 cycles.
 Requested convergence on MAX density matrix=1.00D-06.
 Requested convergence on             energy=1.00D-06.
 No special actions if energy rises.
 SCF Done:  E(RHF) =  -287.155011131     A.U. after   13 cycles
            NFock= 13  Conv=0.44D-08     -V/T= 2.0018
 Calling FoFJK, ICntrl=      2127 FMM=F ISym2X=0 I1Cent= 0 IOpClX= 0 NMat=1 NMatS=1 NMatT=0.
 ***** Axes restored to original set *****
 -------------------------------------------------------------------
 Center     Atomic                   Forces (Hartrees/Bohr)
 Number     Number              X              Y              Z
 -------------------------------------------------------------------
      1        7           0.014634910   -0.004431393    0.005318171
      2        1          -0.009437271   -0.000016742   -0.012962475
      3        6          -0.003647613    0.006012568    0.001568320
      4        1          -0.002599133   -0.007104266   -0.002959975
      5        1           0.004339305   -0.000464245    0.005278197
      6        6           0.005469490    0.003065514   -0.004229714
      7        1          -0.005178970   -0.001467261   -0.003103690
      8        1          -0.001589134   -0.000269576    0.007177478
      9        6           0.001337803   -0.005789931    0.000236018
     10        1          -0.003396175    0.002156195   -0.004439488
     11        1           0.000284109    0.004462946    0.005620239
     12        6          -0.006673917   -0.000360710    0.002712990
     13        1           0.001823562    0.004218363   -0.005726627
     14        1           0.004708936    0.000001238    0.005449571
     15        8           0.003412091    0.000898389   -0.014648864
     16        1          -0.008474476    0.001705353    0.005920643
     17        1           0.004986482   -0.002616442    0.008789207
 -------------------------------------------------------------------
 Cartesian Forces:  Max     0.014648864 RMS     0.005531309
 -----------------------------------------------------------------------------------------------
                       Internal Coordinate Forces (Hartree/Bohr or radian)
  Cent   Atom   N1       Length/X         N2         Alpha/Y        N3         Beta/Z          J
 -----------------------------------------------------------------------------------------------
      1  N            0.014635(     1)     -0.004431(    19)      0.005318(    37)
      2  H           -0.009437(     2)     -0.000017(    20)     -0.012962(    38)
      3  C           -0.003648(     3)      0.006013(    21)      0.001568(    39)
      4  H           -0.002599(     4)     -0.007104(    22)     -0.002960(    40)
      5  H            0.004339(     5)     -0.000464(    23)      0.005278(    41)
      6  C            0.005603(     6)      0.003068(    24)     -0.004198(    42)
      7  H           -0.005179(     7)     -0.001467(    25)     -0.003104(    43)
      8  H           -0.001792(     8)     -0.000287(    26)      0.007208(    44)
      9  C            0.001332(     9)     -0.005788(    27)      0.000235(    45)
     10  H           -0.003396(    10)      0.002156(    28)     -0.004439(    46)
     11  H            0.000284(    11)      0.004463(    29)      0.005620(    47)
     12  C           -0.006674(    12)     -0.000361(    30)      0.002713(    48)
     13  H            0.001824(    13)      0.004218(    31)     -0.005727(    49)
     14  H            0.004709(    14)      0.000001(    32)      0.005450(    50)
         X        8  -0.000000(    15)      6   0.000248(    33)      9   0.000017(    51)     0
     15  O        8  -0.000078(    16)     15   0.000248(    34)      6   0.000091(    52)     0
     16  H       16  -0.010357(    17)      8  -0.002871(    35)     15  -0.000022(    53)     0
     17  H       16  -0.010321(    18)      8  -0.002821(    36)     15   0.000040(    54)     0
 -----------------------------------------------------------------------------------------------
 Internal  Forces:  Max     0.014634910 RMS     0.004994507

 GradGradGradGradGradGradGradGradGradGradGradGradGradGradGradGradGradGrad
 Berny optimization.
 Search for a local minimum.
 Step number   4 out of a maximum of  100
 All quantities printed in internal units (Hartrees-Bohrs-Radians)
 Update second derivatives using D2CorN and points    4
 The second derivative matrix:
                          rAH       dih
           rAH          0.01760
           dih          0.00053  -0.00000
 ITU=  0  1  1
     Eigenvalues ---   -0.00002   0.01761
 RFO step:  Lambda=-9.29418443D-05 EMin=-1.61114572D-05
 Quartic linear search produced a step of -0.10435.
 Maximum step size (   0.849) exceeded in Quadratic search.
    -- Step size scaled by   0.774
 Variable       Old X    -DE/DX   Delta X   Delta X   Delta X     New X
                                 (Linear)    (Quad)   (Total)
   rAH        5.44907  -0.00008  -0.10000  -0.02117  -0.12117   5.32790
   dih       -1.57995   0.00002   0.10925   0.84826   0.95751  -0.62244
         Item               Value     Threshold  Converged?
 Maximum Force            0.000078     0.000450     YES
 RMS     Force            0.000056     0.000300     YES
 Maximum Displacement     0.957509     0.001800     NO 
 RMS     Displacement     0.682461     0.001200     NO 
 Predicted change in Energy=-4.176143D-05
 GradGradGradGradGradGradGradGradGradGradGradGradGradGradGradGradGradGrad

 ---------------------------------------------------------------------------------------------------
                            Z-MATRIX (ANGSTROMS AND DEGREES)
   CD    Cent   Atom    N1       Length/X        N2       Alpha/Y        N3        Beta/Z          J
 ---------------------------------------------------------------------------------------------------
      1      1  N        0   0.844000          0.456000          0.923000
      2      2  H        0   1.372000          0.495000          1.798000
      3      3  C        0   1.643000          1.125000         -0.113000
      4      4  H        0   2.000000          2.097000          0.243000
      5      5  H        0   0.987000          1.307000         -0.971000
      6      6  C        0   2.779000          0.153000         -0.504000
      7      7  H        0   3.689000          0.384000          0.059000
      8      8  H        0   3.031000          0.222000         -1.566000
      9      9  C        0   2.231000         -1.240000         -0.112000
     10     10  H        0   2.866000         -1.707000          0.647000
     11     11  H        0   2.185000         -1.928000         -0.962000
     12     12  C        0   0.830000         -0.941000          0.469000
     13     13  H        0   0.542000         -1.609000          1.286000
     14     14  H        0   0.068000         -1.027000         -0.314000
     15         X        8   1.000000(    14)      6   90.000(    30)      9  -35.663(    45)      0
     16     15  O        8   2.819405(    15)     15   90.000(    31)      6  180.000(    46)      0
     17     16  H       16   0.957200(    16)      8  127.740(    32)     15    0.000(    47)      0
     18     17  H       16   0.957200(    17)      8  127.740(    33)     15  180.000(    48)      0
 ---------------------------------------------------------------------------------------------------
                         Z-Matrix orientation:                         
 ---------------------------------------------------------------------
 Center     Atomic      Atomic             Coordinates (Angstroms)
 Number     Number       Type             X           Y           Z
 ---------------------------------------------------------------------
      1          7           0        0.844000    0.456000    0.923000
      2          1           0        1.372000    0.495000    1.798000
      3          6           0        1.643000    1.125000   -0.113000
      4          1           0        2.000000    2.097000    0.243000
      5          1           0        0.987000    1.307000   -0.971000
      6          6           0        2.779000    0.153000   -0.504000
      7          1           0        3.689000    0.384000    0.059000
      8          1           0        3.031000    0.222000   -1.566000
      9          6           0        2.231000   -1.240000   -0.112000
     10          1           0        2.866000   -1.707000    0.647000
     11          1           0        2.185000   -1.928000   -0.962000
     12          6           0        0.830000   -0.941000    0.469000
[...]
   rAH        5.37596   0.00000   0.00016  -0.00000   0.00016   5.37612
   dih       -1.32955   0.00000   0.00057   0.00001   0.00059  -1.32897
         Item               Value     Threshold  Converged?
 Maximum Force            0.000000     0.000450     YES
 RMS     Force            0.000000     0.000300     YES
 Maximum Displacement     0.000586     0.001800     YES
 RMS     Displacement     0.000430     0.001200     YES
 Predicted change in Energy=-2.735892D-11
 Optimization completed.
    -- Stationary point found.
                       ----------------------------
                       !   Optimized Parameters   !
                       ! (Angstroms and Degrees)  !
 ----------------------                            ----------------------
 !      Name          Value   Derivative information (Atomic Units)     !
 ------------------------------------------------------------------------
 !       rAH         2.8448   -DE/DX =    0.0                           !
 !       dih       -76.1777   -DE/DX =    0.0                           !
 ------------------------------------------------------------------------
 GradGradGradGradGradGradGradGradGradGradGradGradGradGradGradGradGradGrad

 ---------------------------------------------------------------------------------------------------
                            Z-MATRIX (ANGSTROMS AND DEGREES)
   CD    Cent   Atom    N1       Length/X        N2       Alpha/Y        N3        Beta/Z          J
 ---------------------------------------------------------------------------------------------------
      1      1  N        0   0.844000          0.456000          0.923000
      2      2  H        0   1.372000          0.495000          1.798000
      3      3  C        0   1.643000          1.125000         -0.113000
      4      4  H        0   2.000000          2.097000          0.243000
      5      5  H        0   0.987000          1.307000         -0.971000
      6      6  C        0   2.779000          0.153000         -0.504000
      7      7  H        0   3.689000          0.384000          0.059000
      8      8  H        0   3.031000          0.222000         -1.566000
      9      9  C        0   2.231000         -1.240000         -0.112000
     10     10  H        0   2.866000         -1.707000          0.647000
     11     11  H        0   2.185000         -1.928000         -0.962000
     12     12  C        0   0.830000         -0.941000          0.469000
     13     13  H        0   0.542000         -1.609000          1.286000
     14     14  H        0   0.068000         -1.027000         -0.314000
     15         X        8   1.000000(    14)      6   90.000(    30)      9  -76.178(    45)      0
     16     15  O        8   2.844835(    15)     15   90.000(    31)      6  180.000(    46)      0
     17     16  H       16   0.957200(    16)      8  127.740(    32)     15    0.000(    47)      0
     18     17  H       16   0.957200(    17)      8  127.740(    33)     15  180.000(    48)      0
 ---------------------------------------------------------------------------------------------------
                         Z-Matrix orientation:                         
 ---------------------------------------------------------------------
 Center     Atomic      Atomic             Coordinates (Angstroms)
 Number     Number       Type             X           Y           Z
 ---------------------------------------------------------------------
      1          7           0        0.844000    0.456000    0.923000
      2          1           0        1.372000    0.495000    1.798000
      3          6           0        1.643000    1.125000   -0.113000
      4          1           0        2.000000    2.097000    0.243000
      5          1           0        0.987000    1.307000   -0.971000
      6          6           0        2.779000    0.153000   -0.504000
      7          1           0        3.689000    0.384000    0.059000
      8          1           0        3.031000    0.222000   -1.566000
      9          6           0        2.231000   -1.240000   -0.112000
     10          1           0        2.866000   -1.707000    0.647000
     11          1           0        2.185000   -1.928000   -0.962000
     12          6           0        0.830000   -0.941000    0.469000
     13          1           0        0.542000   -1.609000    1.286000
     14          1           0        0.068000   -1.027000   -0.314000
     15         -1           0        3.864948   -0.305021   -1.402356
     16          8           0        3.686499    0.401482   -4.328461
     17          1           0        4.452753    0.039517   -4.773508
     18          1           0        3.190239    0.837375   -5.021250
 ---------------------------------------------------------------------
                    Distance matrix (angstroms):
                    1          2          3          4          5
     1  N    0.000000
     2  H    1.022707   0.000000
     3  C    1.469441   2.030335   0.000000
     4  H    2.119343   2.319227   1.094974   0.000000
     5  H    2.081318   2.911173   1.095274   1.767502   0.000000
     6  C    2.423296   2.719525   1.545368   2.223508   2.181987
     7  H    2.974173   2.899126   2.182838   2.412664   3.035397
     8  H    3.321573   3.760759   2.202989   2.801975   2.389390
     9  C    2.423099   2.719597   2.437000   3.363771   2.961862
    10  H    2.973757   2.899248   3.177035   3.922192   3.902917
    11  H    3.321891   3.761582   3.214868   4.205577   3.449712
    12  C    1.468986   2.030296   2.295223   3.263345   2.674276
    13  H    2.118301   2.319021   3.262539   4.116801   3.714180
    14  H    2.081258   2.911605   2.674347   3.715138   2.593023
    15  X    3.887487   4.134864   2.940145   3.457590   3.326750
    16  O    5.971651   6.549746   4.740198   5.159197   4.402250
    17  H    6.756239   7.272085   5.549173   5.951016   5.298776
    18  H    6.401905   7.065789   5.154376   5.542170   4.634580
                    6          7          8          9         10
     6  C    0.000000
     7  H    1.094728   0.000000
     8  H    1.093668   1.760634   0.000000
     9  C    1.547390   2.189151   2.211687   0.000000
    10  H    2.189057   2.322790   2.940346   1.094255   0.000000
    11  H    2.212049   2.941054   2.388102   1.094514   1.761103
    12  C    2.437656   3.177673   3.215306   1.545886   2.182598
    13  H    3.363467   3.921886   4.204948   2.223350   2.412240
    14  H    2.962773   3.904061   3.450634   2.182829   3.035577
    15  X    1.481927   1.625198   1.000000   2.282321   2.676434
    16  O    3.938502   4.387497   2.844835   4.753050   5.465723
    17  H    4.587268   4.904602   3.513231   5.320057   5.911854
    18  H    4.587268   5.124768   3.513231   5.416305   6.221577
                   11         12         13         14         15
    11  H    0.000000
    12  C    2.204077   0.000000
    13  H    2.802626   1.093918   0.000000
    14  H    2.390271   1.095960   1.767314   0.000000
    15  X    2.377014   3.621788   4.468736   4.015294   0.000000
    16  O    4.360510   5.742602   6.741816   5.590169   3.015474
    17  H    4.851950   6.447453   7.397921   6.344347   3.439316
    18  H    5.013513   6.235077   7.264937   5.948316   3.854438
                   16         17         18
    16  O    0.000000
    17  H    0.957200   0.000000
    18  H    0.957200   1.513901   0.000000
 Stoichiometry    C4H11NO
 Framework group  C1[X(C4H11NO)]
 Deg. of freedom    45
 Full point group                 C1      NOp   1
 Largest Abelian subgroup         C1      NOp   1
 Largest concise Abelian subgroup C1      NOp   1
                         Standard orientation:                         
 ---------------------------------------------------------------------
 Center     Atomic      Atomic             Coordinates (Angstroms)
 Number     Number       Type             X           Y           Z
 ---------------------------------------------------------------------
      1          7           0        2.032006   -0.705403   -0.248724
      2          1           0        2.555463   -0.716956    0.629791
      3          6           0        0.678850   -1.206492    0.029009
      4          1           0        0.722790   -2.138011    0.602864
      5          1           0        0.205389   -1.431814   -0.932599
      6          6           0       -0.083566   -0.070985    0.748388
      7          1           0       -0.031711   -0.204923    1.833654
      8          1           0       -1.142714   -0.051148    0.476503
      9          6           0        0.665037    1.213218    0.318464
     10          1           0        1.091816    1.722729    1.187747
     11          1           0        0.011893    1.930955   -0.187713
     12          6           0        1.789778    0.698083   -0.608551
     13          1           0        2.714535    1.278523   -0.540942
     14          1           0        1.460237    0.719774   -1.653568
     15          8           0       -3.897755    0.000450   -0.230723
     16          1           0       -4.603555    0.485009    0.197390
     17          1           0       -4.326734   -0.462857   -0.950137
 ---------------------------------------------------------------------
 Rotational constants (GHZ):           5.6534074           1.1632128           1.0656485

 **********************************************************************

            Population analysis using the SCF density.

 **********************************************************************

 Orbital symmetries:
       Occupied  (A) (A) (A) (A) (A) (A) (A) (A) (A) (A) (A) (A)
                 (A) (A) (A) (A) (A) (A) (A) (A) (A) (A) (A) (A)
                 (A)
       Virtual   (A) (A) (A) (A) (A) (A) (A) (A) (A) (A) (A) (A)
                 (A) (A) (A) (A) (A) (A) (A) (A) (A) (A) (A) (A)
                 (A) (A) (A) (A) (A) (A) (A) (A) (A) (A) (A) (A)
                 (A) (A) (A) (A) (A) (A) (A) (A) (A) (A) (A) (A)
                 (A) (A) (A) (A) (A) (A) (A) (A) (A) (A) (A) (A)
                 (A) (A) (A) (A) (A) (A) (A) (A) (A) (A) (A) (A)
                 (A) (A) (A) (A) (A) (A) (A) (A) (A) (A) (A) (A)
                 (A) (A) (A)
 The electronic state is 1-A.
 Alpha  occ. eigenvalues --  -20.56719 -15.53185 -11.23345 -11.23156 -11.20763
 Alpha  occ. eigenvalues --  -11.20285  -1.34808  -1.20719  -1.00741  -0.95871
 Alpha  occ. eigenvalues --   -0.80432  -0.77171  -0.71322  -0.66558  -0.62530
 Alpha  occ. eigenvalues --   -0.57970  -0.57761  -0.57291  -0.50440  -0.49658
 Alpha  occ. eigenvalues --   -0.48234  -0.46707  -0.46482  -0.44573  -0.36351
 Alpha virt. eigenvalues --    0.20093   0.22331   0.26288   0.29586   0.29935
 Alpha virt. eigenvalues --    0.30322   0.31386   0.33838   0.34862   0.35208
 Alpha virt. eigenvalues --    0.37742   0.38793   0.42336   0.42736   0.49671
 Alpha virt. eigenvalues --    0.53521   0.73861   0.77376   0.77538   0.80815
 Alpha virt. eigenvalues --    0.81498   0.84822   0.91446   0.93184   0.93572
 Alpha virt. eigenvalues --    0.96026   1.01514   1.02749   1.03763   1.07421
 Alpha virt. eigenvalues --    1.10424   1.12006   1.13742   1.14550   1.15526
 Alpha virt. eigenvalues --    1.16141   1.17345   1.20305   1.20910   1.22019
 Alpha virt. eigenvalues --    1.24033   1.24569   1.24949   1.37474   1.39722
 Alpha virt. eigenvalues --    1.43621   1.50785   1.53700   1.60363   1.61100
 Alpha virt. eigenvalues --    1.70486   1.92007   2.01853   2.02733   2.03680
 Alpha virt. eigenvalues --    2.06104   2.09868   2.13345   2.15202   2.20948
 Alpha virt. eigenvalues --    2.23564   2.30175   2.32943   2.36023   2.43370
 Alpha virt. eigenvalues --    2.44302   2.44434   2.52129   2.58295   2.60309
 Alpha virt. eigenvalues --    2.62003   2.72614   2.74641   2.82689   2.91228
 Alpha virt. eigenvalues --    2.94089   2.96557   2.98795   3.00117   3.03933
 Alpha virt. eigenvalues --    3.25097   3.99555   4.35923   4.62619   4.69459
 Alpha virt. eigenvalues --    4.87391   5.06428
          Condensed to atoms (all electrons):
               1          2          3          4          5          6
     1  N    7.065495   0.327202   0.291515  -0.033803  -0.047749  -0.085252
     2  H    0.327202   0.436107  -0.042456  -0.005453   0.005721  -0.000651
     3  C    0.291515  -0.042456   4.978483   0.403335   0.405775   0.334096
     4  H   -0.033803  -0.005453   0.403335   0.526838  -0.026780  -0.035234
     5  H   -0.047749   0.005721   0.405775  -0.026780   0.547090  -0.053412
     6  C   -0.085252  -0.000651   0.334096  -0.035234  -0.053412   5.228931
     7  H    0.002702   0.000974  -0.039571  -0.004313   0.003874   0.394477
     8  H    0.003937  -0.000021  -0.029611   0.001159  -0.002097   0.389973
     9  C   -0.085420  -0.000681  -0.061451   0.003920  -0.000428   0.319602
    10  H    0.002701   0.000970   0.003349  -0.000166  -0.000012  -0.038518
    11  H    0.004376  -0.000028   0.002913  -0.000063   0.000157  -0.033011
    12  C    0.294625  -0.042565  -0.095028   0.006157  -0.001871  -0.060604
    13  H   -0.033699  -0.005464   0.006181  -0.000116  -0.000174   0.003838
    14  H   -0.047654   0.005739  -0.001921  -0.000173   0.003463  -0.000404
    15  O   -0.000000  -0.000000   0.000016   0.000000  -0.000000  -0.001503
    16  H    0.000000   0.000000  -0.000000   0.000000  -0.000000   0.000066
    17  H    0.000000   0.000000  -0.000002   0.000000   0.000001   0.000066
               7          8          9         10         11         12
     1  N    0.002702   0.003937  -0.085420   0.002701   0.004376   0.294625
     2  H    0.000974  -0.000021  -0.000681   0.000970  -0.000028  -0.042565
     3  C   -0.039571  -0.029611  -0.061451   0.003349   0.002913  -0.095028
     4  H   -0.004313   0.001159   0.003920  -0.000166  -0.000063   0.006157
     5  H    0.003874  -0.002097  -0.000428  -0.000012   0.000157  -0.001871
     6  C    0.394477   0.389973   0.319602  -0.038518  -0.033011  -0.060604
     7  H    0.552224  -0.023176  -0.039937  -0.006416   0.002619   0.003392
     8  H   -0.023176   0.473165  -0.030449   0.002326  -0.003113   0.002606
     9  C   -0.039937  -0.030449   5.204608   0.395212   0.391536   0.334720
    10  H   -0.006416   0.002326   0.395212   0.550277  -0.026341  -0.038849
    11  H    0.002619  -0.003113   0.391536  -0.026341   0.526681  -0.032345
    12  C    0.003392   0.002606   0.334720  -0.038849  -0.032345   4.976495
    13  H   -0.000167  -0.000056  -0.035565  -0.004310   0.001375   0.403194
    14  H   -0.000013   0.000146  -0.053650   0.003890  -0.002533   0.405646
    15  O    0.000004   0.006547   0.000013  -0.000000   0.000005   0.000000
    16  H   -0.000001  -0.000196  -0.000001   0.000000  -0.000000   0.000000
    17  H   -0.000000  -0.000198  -0.000001   0.000000  -0.000000   0.000000
              13         14         15         16         17
     1  N   -0.033699  -0.047654  -0.000000   0.000000   0.000000
     2  H   -0.005464   0.005739  -0.000000   0.000000   0.000000
     3  C    0.006181  -0.001921   0.000016  -0.000000  -0.000002
     4  H   -0.000116  -0.000173   0.000000   0.000000   0.000000
     5  H   -0.000174   0.003463  -0.000000  -0.000000   0.000001
     6  C    0.003838  -0.000404  -0.001503   0.000066   0.000066
     7  H   -0.000167  -0.000013   0.000004  -0.000001  -0.000000
     8  H   -0.000056   0.000146   0.006547  -0.000196  -0.000198
     9  C   -0.035565  -0.053650   0.000013  -0.000001  -0.000001
    10  H   -0.004310   0.003890  -0.000000   0.000000   0.000000
    11  H    0.001375  -0.002533   0.000005  -0.000000  -0.000000
    12  C    0.403194   0.405646   0.000000   0.000000   0.000000
    13  H    0.527086  -0.026949   0.000000  -0.000000  -0.000000
    14  H   -0.026949   0.548528  -0.000000   0.000000   0.000000
    15  O    0.000000  -0.000000   8.330417   0.264893   0.264871
    16  H   -0.000000   0.000000   0.264893   0.317865  -0.018280
    17  H   -0.000000   0.000000   0.264871  -0.018280   0.317768
 Mulliken charges:
               1
     1  N   -0.658976
     2  H    0.320604
     3  C   -0.155620
     4  H    0.164693
     5  H    0.166443
     6  C   -0.362460
     7  H    0.153328
     8  H    0.209059
     9  C   -0.342028
    10  H    0.155886
    11  H    0.167770
    12  C   -0.155574
    13  H    0.164825
    14  H    0.165884
    15  O   -0.865264
    16  H    0.435655
    17  H    0.435776
 Sum of Mulliken charges =  -0.00000
 Mulliken charges with hydrogens summed into heavy atoms:
               1
     1  N   -0.338372
     3  C    0.175515
     6  C   -0.000073
     9  C   -0.018372
    12  C    0.175135
    15  O    0.006167
 Electronic spatial extent (au):  <R**2>=           1118.3554
 Charge=             -0.0000 electrons
 Dipole moment (field-independent basis, Debye):
    X=             -3.2139    Y=              0.8251    Z=              0.5595  Tot=              3.3649
 Quadrupole moment (field-independent basis, Debye-Ang):
   XX=            -23.0859   YY=            -39.5302   ZZ=            -37.6260
   XY=              2.2870   XZ=              6.5985   YZ=             -0.5223
 Traceless Quadrupole moment (field-independent basis, Debye-Ang):
   XX=             10.3281   YY=             -6.1162   ZZ=             -4.2120
   XY=              2.2870   XZ=              6.5985   YZ=             -0.5223
 Octapole moment (field-independent basis, Debye-Ang**2):
  XXX=           -138.7587  YYY=             -1.2390  ZZZ=             -2.4913  XYY=            -11.5395
  XXY=             11.6037  XXZ=             -3.1794  XZZ=            -12.8666  YZZ=             -1.0949
  YYZ=              1.0434  XYZ=            -10.4558
 Hexadecapole moment (field-independent basis, Debye-Ang**3):
 XXXX=           -374.7635 YYYY=           -235.1944 ZZZZ=           -115.2657 XXXY=             -5.3797
 XXXZ=             90.7447 YYYX=              0.0583 YYYZ=             -3.8610 ZZZX=             17.5719
 ZZZY=              0.4329 XXYY=           -199.8342 XXZZ=           -159.2752 YYZZ=            -58.6509
 XXYZ=             15.7578 YYXZ=              8.9665 ZZXY=              4.8877
 N-N= 2.414067521655D+02 E-N=-1.155708307052D+03  KE= 2.866462201601D+02
 1\1\GINC-C405-013\FOpt\RHF\6-31G(d)\C4H11N1O1\TG455515\31-Mar-2021\1\\
 # HF/6-31G* Opt=(Z-matrix,MaxCycles=100) Geom=PrintInputOrient\\<qmtoo
 l> simtype="Geometry optimization" </qmtool> PRLD-DON-H32\\0,1\N,0,0.8
 439999819,0.4560000002,0.9229999781\H,0,1.371999979,0.4950000048,1.797
 9999781\C,0,1.6430000067,1.125,-0.112999998\H,0,2.,2.0969998837,0.2430
 000007\H,0,0.9869999886,1.307000041,-0.9710000157\C,0,2.7790000439,0.1
 529999971,-0.5040000081\H,0,3.6889998913,0.3840000033,0.0590000004\H,0
 ,3.0309998989,0.2220000029,-1.5659999847\C,0,2.2309999466,-1.240000009
 5,-0.1120000035\H,0,2.8659999371,-1.7070000172,0.6470000148\H,0,2.1849
 999428,-1.9279999733,-0.9620000124\C,0,0.8299999833,-0.9409999847,0.46
 90000117\H,0,0.5419999957,-1.6089999676,1.2860000134\H,0,0.0680000037,
 -1.0269999504,-0.3140000105\X,8,1.,6,90.,9,dih,0\O,8,rAH,15,90.,6,180.
 ,0\H,16,0.9572,8,127.74,15,0.,0\H,16,0.9572,8,127.74,15,180.,0\\rAH=2.
 84483466\dih=-76.17771482\\Version=ES64L-G16RevA.03\State=1-A\HF=-287.
 1550163\RMSD=5.436e-09\RMSF=5.535e-03\Dipole=0.8194279,-0.163146,-1.02
 69174\Quadrupole=-5.132896,-4.0545942,9.1874902,1.1281276,-1.4128758,-
 2.2282183\PG=C01 [X(C4H11N1O1)]\\@


 THE ONLY EXISTING THINGS ARE ATOMS AND EMPTY SPACE;
 ALL ELSE IS MERE OPINION. -- DEMOCRITUS OF ABDERA D. 370 B.C.
 EXPERIMENTS ARE THE ONLY MEANS OF KNOWLEDGE AT OUR DISPOSAL
 THE REST IS POETRY, IMAGINATION. -- MAX PLANCK
 Job cpu time:       0 days  0 hours  3 minutes  0.9 seconds.
 Elapsed time:       0 days  0 hours  2 minutes 56.9 seconds.
 File lengths (MBytes):  RWF=     10 Int=      0 D2E=      0 Chk=      2 Scr=      1
 Normal termination of Gaussian 16 at Wed Mar 31 17:10:47 2021.
