 Entering Gaussian System, Link 0=g16
 Initial command:
 /home1/apps/gaussian/16rA.03/g16/l1.exe "/tmp/Gau-234558.inp" -scrdir="/tmp/"
 Entering Link 1 = /home1/apps/gaussian/16rA.03/g16/l1.exe PID=    234559.
  
 Copyright (c) 1988,1990,1992,1993,1995,1998,2003,2009,2016,
            Gaussian, Inc.  All Rights Reserved.
  
 This is part of the Gaussian(R) 16 program.  It is based on
 the Gaussian(R) 09 system (copyright 2009, Gaussian, Inc.),
 the Gaussian(R) 03 system (copyright 2003, Gaussian, Inc.),
 the Gaussian(R) 98 system (copyright 1998, Gaussian, Inc.),
 the Gaussian(R) 94 system (copyright 1995, Gaussian, Inc.),
 the Gaussian 92(TM) system (copyright 1992, Gaussian, Inc.),
 the Gaussian 90(TM) system (copyright 1990, Gaussian, Inc.),
 the Gaussian 88(TM) system (copyright 1988, Gaussian, Inc.),
 the Gaussian 86(TM) system (copyright 1986, Carnegie Mellon
 University), and the Gaussian 82(TM) system (copyright 1983,
 Carnegie Mellon University). Gaussian is a federally registered
 trademark of Gaussian, Inc.
  
 This software contains proprietary and confidential information,
 including trade secrets, belonging to Gaussian, Inc.
  
 This software is provided under written license and may be
 used, copied, transmitted, or stored only in accord with that
 written license.
  
 The following legend is applicable only to US Government
 contracts under FAR:
  
                    RESTRICTED RIGHTS LEGEND
  
 Use, reproduction and disclosure by the US Government is
 subject to restrictions as set forth in subparagraphs (a)
 and (c) of the Commercial Computer Software - Restricted
 Rights clause in FAR 52.227-19.
  
 Gaussian, Inc.
 340 Quinnipiac St., Bldg. 40, Wallingford CT 06492
  
  
 ---------------------------------------------------------------
 Warning -- This program may not be used in any manner that
 competes with the business of Gaussian, Inc. or will provide
 assistance to any competitor of Gaussian, Inc.  The licensee
 of this program is prohibited from giving any competitor of
 Gaussian, Inc. access to this program.  By using this program,
 the user acknowledges that Gaussian, Inc. is engaged in the
 business of creating and licensing software in the field of
 computational chemistry and represents and warrants to the
 licensee that it is not a competitor of Gaussian, Inc. and that
 it will not use this program in any manner prohibited above.
 ---------------------------------------------------------------
  

 Cite this work as:
 Gaussian 16, Revision A.03,
 M. J. Frisch, G. W. Trucks, H. B. Schlegel, G. E. Scuseria, 
 M. A. Robb, J. R. Cheeseman, G. Scalmani, V. Barone, 
 G. A. Petersson, H. Nakatsuji, X. Li, M. Caricato, A. V. Marenich, 
 J. Bloino, B. G. Janesko, R. Gomperts, B. Mennucci, H. P. Hratchian, 
 J. V. Ortiz, A. F. Izmaylov, J. L. Sonnenberg, D. Williams-Young, 
 F. Ding, F. Lipparini, F. Egidi, J. Goings, B. Peng, A. Petrone, 
 T. Henderson, D. Ranasinghe, V. G. Zakrzewski, J. Gao, N. Rega, 
 G. Zheng, W. Liang, M. Hada, M. Ehara, K. Toyota, R. Fukuda, 
 J. Hasegawa, M. Ishida, T. Nakajima, Y. Honda, O. Kitao, H. Nakai, 
 T. Vreven, K. Throssell, J. A. Montgomery, Jr., J. E. Peralta, 
 F. Ogliaro, M. J. Bearpark, J. J. Heyd, E. N. Brothers, K. N. Kudin, 
 V. N. Staroverov, T. A. Keith, R. Kobayashi, J. Normand, 
 K. Raghavachari, A. P. Rendell, J. C. Burant, S. S. Iyengar, 
 J. Tomasi, M. Cossi, J. M. Millam, M. Klene, C. Adamo, R. Cammi, 
 J. W. Ochterski, R. L. Martin, K. Morokuma, O. Farkas, 
 J. B. Foresman, and D. J. Fox, Gaussian, Inc., Wallingford CT, 2016.
 
 ******************************************
 Gaussian 16:  ES64L-G16RevA.03 25-Dec-2016
                31-Mar-2021 
 ******************************************
 %chk=PRLD-DON-H51.chk
 %nproc=1
 Will use up to    1 processors via shared memory.
 %mem=1GB
 --------------------------------------------------------------
 # HF/6-31G* Opt=(Z-matrix,MaxCycles=100) Geom=PrintInputOrient
 --------------------------------------------------------------
 1/6=100,10=7,18=40,38=1/1,3;
 2/9=2000,12=2,17=6,18=5,29=3,40=1/2;
 3/5=1,6=6,7=1,11=9,25=1,30=1,71=1/1,2,3;
 4//1;
 5/5=2,38=5/2;
 6/7=2,8=2,9=2,10=2,28=1/1;
 7/29=1/1,2,3,16;
 1/6=100,10=7,18=40/3(2);
 2/9=2000,29=3/2;
 99//99;
 2/9=2000,29=3/2;
 3/5=1,6=6,7=1,11=9,25=1,30=1,71=1/1,2,3;
 4/5=5,16=3,69=1/1;
 5/5=2,38=5/2;
 7//1,2,3,16;
 1/6=100,18=40/3(-5);
 2/9=2000,29=3/2;
 6/7=2,8=2,9=2,10=2,19=2,28=1/1;
 99/9=1/99;
 ---------------------------------------------------------------
 <qmtool> simtype="Geometry optimization" </qmtool> PRLD-DON-H51
 ---------------------------------------------------------------
 Symbolic Z-matrix:
 Charge =  0 Multiplicity = 1
 N1                    0.844     0.456     0.923 
 H2                    1.372     0.495     1.798 
 C3                    1.643     1.125    -0.113 
 H4                    2.        2.097     0.243 
 H5                    0.987     1.307    -0.971 
 C6                    2.779     0.153    -0.504 
 H7                    3.689     0.384     0.059 
 H8                    3.031     0.222    -1.566 
 C9                    2.231    -1.24     -0.112 
 H10                   2.866    -1.707     0.647 
 H11                   2.185    -1.928    -0.962 
 C12                   0.83     -0.941     0.469 
 H13                   0.542    -1.609     1.286 
 H14                   0.068    -1.027    -0.314 
 x                    H13   1.       C12   90.      H14  dih      0
 Ow                   H13  rAH      x     90.      C12   180.     0
 H1w                  Ow    0.9572   H13   127.74   x     0.       0
 H2w                  Ow    0.9572   H13   127.74   x     180.     0
       Variables:
  rAH                   2.                       
  dih                   0.                       
 

 GradGradGradGradGradGradGradGradGradGradGradGradGradGradGradGradGradGrad
 Berny optimization.
 Initialization pass.
                       ----------------------------
                       !    Initial Parameters    !
                       ! (Angstroms and Degrees)  !
 ----------------------                            ----------------------
 !      Name          Value   Derivative information (Atomic Units)     !
 ------------------------------------------------------------------------
 !       rAH         2.0      estimate D2E/DX2                          !
 !       dih         0.0      estimate D2E/DX2                          !
 ------------------------------------------------------------------------
 Trust Radius=3.00D-01 FncErr=1.00D-07 GrdErr=1.00D-07 EigMax=2.50D+02 EigMin=1.00D-04
 Number of steps in this run=    100 maximum allowed number of steps=    100.
 GradGradGradGradGradGradGradGradGradGradGradGradGradGradGradGradGradGrad

 ---------------------------------------------------------------------------------------------------
                            Z-MATRIX (ANGSTROMS AND DEGREES)
   CD    Cent   Atom    N1       Length/X        N2       Alpha/Y        N3        Beta/Z          J
 ---------------------------------------------------------------------------------------------------
      1      1  N        0   0.844000          0.456000          0.923000
      2      2  H        0   1.372000          0.495000          1.798000
      3      3  C        0   1.643000          1.125000         -0.113000
      4      4  H        0   2.000000          2.097000          0.243000
      5      5  H        0   0.987000          1.307000         -0.971000
      6      6  C        0   2.779000          0.153000         -0.504000
      7      7  H        0   3.689000          0.384000          0.059000
      8      8  H        0   3.031000          0.222000         -1.566000
      9      9  C        0   2.231000         -1.240000         -0.112000
     10     10  H        0   2.866000         -1.707000          0.647000
     11     11  H        0   2.185000         -1.928000         -0.962000
     12     12  C        0   0.830000         -0.941000          0.469000
     13     13  H        0   0.542000         -1.609000          1.286000
     14     14  H        0   0.068000         -1.027000         -0.314000
     15         X       13   1.000000(    14)     12   90.000(    30)     14    0.000(    45)      0
     16     15  O       13   2.000000(    15)     15   90.000(    31)     12  180.000(    46)      0
     17     16  H       16   0.957200(    16)     13  127.740(    32)     15    0.000(    47)      0
     18     17  H       16   0.957200(    17)     13  127.740(    33)     15  180.000(    48)      0
 ---------------------------------------------------------------------------------------------------
                         Z-Matrix orientation:                         
 ---------------------------------------------------------------------
 Center     Atomic      Atomic             Coordinates (Angstroms)
 Number     Number       Type             X           Y           Z
 ---------------------------------------------------------------------
      1          7           0        0.844000    0.456000    0.923000
      2          1           0        1.372000    0.495000    1.798000
      3          6           0        1.643000    1.125000   -0.113000
      4          1           0        2.000000    2.097000    0.243000
      5          1           0        0.987000    1.307000   -0.971000
      6          6           0        2.779000    0.153000   -0.504000
      7          1           0        3.689000    0.384000    0.059000
      8          1           0        3.031000    0.222000   -1.566000
      9          6           0        2.231000   -1.240000   -0.112000
     10          1           0        2.866000   -1.707000    0.647000
     11          1           0        2.185000   -1.928000   -0.962000
     12          6           0        0.830000   -0.941000    0.469000
     13          1           0        0.542000   -1.609000    1.286000
     14          1           0        0.068000   -1.027000   -0.314000
     15         -1           0       -0.271076   -1.885215    0.773543
     16          8           0        0.015452   -2.830298    2.779713
     17          1           0       -0.754253   -3.397147    2.829379
     18          1           0        0.476663   -2.978985    3.605188
 ---------------------------------------------------------------------
                    Distance matrix (angstroms):
                    1          2          3          4          5
     1  N    0.000000
     2  H    1.022707   0.000000
     3  C    1.469441   2.030335   0.000000
     4  H    2.119343   2.319227   1.094974   0.000000
     5  H    2.081318   2.911173   1.095274   1.767502   0.000000
     6  C    2.423296   2.719525   1.545368   2.223508   2.181987
     7  H    2.974173   2.899126   2.182838   2.412664   3.035397
     8  H    3.321573   3.760759   2.202989   2.801975   2.389390
     9  C    2.423099   2.719597   2.437000   3.363771   2.961862
    10  H    2.973757   2.899248   3.177035   3.922192   3.902917
    11  H    3.321891   3.761582   3.214868   4.205577   3.449712
    12  C    1.468986   2.030296   2.295223   3.263345   2.674276
    13  H    2.118301   2.319021   3.262539   4.116801   3.714180
    14  H    2.081258   2.911605   2.674347   3.715138   2.593023
    15  X    2.597503   3.068328   3.675737   4.614900   3.849211
    16  O    3.864405   3.723115   5.163437   5.886561   5.668244
    17  H    4.586441   4.553406   5.903747   6.667902   6.293158
    18  H    4.373579   4.016980   5.659325   6.276184   6.290597
                    6          7          8          9         10
     6  C    0.000000
     7  H    1.094728   0.000000
     8  H    1.093668   1.760634   0.000000
     9  C    1.547390   2.189151   2.211687   0.000000
    10  H    2.189057   2.322790   2.940346   1.094255   0.000000
    11  H    2.212049   2.941054   2.388102   1.094514   1.761103
    12  C    2.437656   3.177673   3.215306   1.545886   2.182598
    13  H    3.363467   3.921886   4.204948   2.223350   2.412240
    14  H    2.962773   3.904061   3.450634   2.182829   3.035577
    15  X    3.884508   4.619752   4.562622   2.731460   3.144681
    16  O    5.226857   5.588286   6.106986   3.974884   3.733080
    17  H    6.016547   6.458682   6.837084   4.713463   4.552539
    18  H    5.656458   5.848438   6.596372   4.463099   4.009707
                   11         12         13         14         15
    11  H    0.000000
    12  C    2.204077   0.000000
    13  H    2.802626   1.093918   0.000000
    14  H    2.390271   1.095960   1.767314   0.000000
    15  X    3.007698   1.482112   1.000000   1.426273   0.000000
    16  O    4.418314   3.093918   2.000000   3.581299   2.236068
    17  H    5.017186   3.756848   2.694394   4.021757   2.597279
    18  H    4.988205   3.756848   2.694394   4.397418   3.126286
                   16         17         18
    16  O    0.000000
    17  H    0.957200   0.000000
    18  H    0.957200   1.513901   0.000000
 Stoichiometry    C4H11NO
 Framework group  C1[X(C4H11NO)]
 Deg. of freedom    45
 Full point group                 C1      NOp   1
 Largest Abelian subgroup         C1      NOp   1
 Largest concise Abelian subgroup C1      NOp   1
                         Standard orientation:                         
 ---------------------------------------------------------------------
 Center     Atomic      Atomic             Coordinates (Angstroms)
 Number     Number       Type             X           Y           Z
 ---------------------------------------------------------------------
      1          7           0        0.378460   -1.189456   -0.053079
      2          1           0        0.106173   -1.226877   -1.038162
      3          6           0        1.798040   -0.814507    0.005772
      4          1           0        2.388484   -1.430925   -0.680066
      5          1           0        2.152247   -1.017558    1.022105
      6          6           0        1.877528    0.698866   -0.296791
      7          1           0        2.087860    0.864871   -1.358221
      8          1           0        2.673814    1.189582    0.269985
      9          6           0        0.471311    1.228607    0.072460
     10          1           0       -0.022903    1.659964   -0.803370
     11          1           0        0.503947    2.007459    0.840759
     12          6           0       -0.288038   -0.029204    0.553151
     13          1           0       -1.352775   -0.021664    0.302282
     14          1           0       -0.204371   -0.130522    1.641206
     15          8           0       -3.299424   -0.007879   -0.156379
     16          1           0       -4.042973   -0.075604    0.442603
     17          1           0       -3.696382    0.067924   -1.024084
 ---------------------------------------------------------------------
 Rotational constants (GHZ):           6.2723749           1.5292331           1.3275320
 Standard basis: 6-31G(d) (6D, 7F)
 There are   112 symmetry adapted cartesian basis functions of A   symmetry.
 There are   112 symmetry adapted basis functions of A   symmetry.
   112 basis functions,   212 primitive gaussians,   112 cartesian basis functions
    25 alpha electrons       25 beta electrons
       nuclear repulsion energy       249.6330450256 Hartrees.
 NAtoms=   17 NActive=   17 NUniq=   17 SFac= 1.00D+00 NAtFMM=   60 NAOKFM=F Big=F
 Integral buffers will be    131072 words long.
 Raffenetti 1 integral format.
 Two-electron integral symmetry is turned on.
 One-electron integrals computed using PRISM.
 NBasis=   112 RedAO= T EigKep=  3.12D-03  NBF=   112
 NBsUse=   112 1.00D-06 EigRej= -1.00D+00 NBFU=   112
 ExpMin= 1.61D-01 ExpMax= 5.48D+03 ExpMxC= 8.25D+02 IAcc=3 IRadAn=         5 AccDes= 0.00D+00
 Harris functional with IExCor=  205 and IRadAn=       5 diagonalized for initial guess.
 HarFok:  IExCor=  205 AccDes= 0.00D+00 IRadAn=         5 IDoV= 1 UseB2=F ITyADJ=14
 ICtDFT=  3500011 ScaDFX=  1.000000  1.000000  1.000000  1.000000
 FoFCou: FMM=F IPFlag=           0 FMFlag=      100000 FMFlg1=           0
         NFxFlg=           0 DoJE=T BraDBF=F KetDBF=T FulRan=T
         wScrn=  0.000000 ICntrl=       500 IOpCl=  0 I1Cent=   200000004 NGrid=           0
         NMat0=    1 NMatS0=      1 NMatT0=    0 NMatD0=    1 NMtDS0=    0 NMtDT0=    0
 Petite list used in FoFCou.
 Keep R1 ints in memory in canonical form, NReq=20923680.
 Requested convergence on RMS density matrix=1.00D-08 within 128 cycles.
 Requested convergence on MAX density matrix=1.00D-06.
 Requested convergence on             energy=1.00D-06.
 No special actions if energy rises.
 SCF Done:  E(RHF) =  -287.150521532     A.U. after   12 cycles
            NFock= 12  Conv=0.63D-08     -V/T= 2.0016

 **********************************************************************

            Population analysis using the SCF density.

 **********************************************************************

 Orbital symmetries:
       Occupied  (A) (A) (A) (A) (A) (A) (A) (A) (A) (A) (A) (A)
                 (A) (A) (A) (A) (A) (A) (A) (A) (A) (A) (A) (A)
                 (A)
       Virtual   (A) (A) (A) (A) (A) (A) (A) (A) (A) (A) (A) (A)
                 (A) (A) (A) (A) (A) (A) (A) (A) (A) (A) (A) (A)
                 (A) (A) (A) (A) (A) (A) (A) (A) (A) (A) (A) (A)
                 (A) (A) (A) (A) (A) (A) (A) (A) (A) (A) (A) (A)
                 (A) (A) (A) (A) (A) (A) (A) (A) (A) (A) (A) (A)
                 (A) (A) (A) (A) (A) (A) (A) (A) (A) (A) (A) (A)
                 (A) (A) (A) (A) (A) (A) (A) (A) (A) (A) (A) (A)
                 (A) (A) (A)
 The electronic state is 1-A.
 Alpha  occ. eigenvalues --  -20.57340 -15.52372 -11.22855 -11.21201 -11.20534
 Alpha  occ. eigenvalues --  -11.20196  -1.35593  -1.19888  -1.00394  -0.95099
 Alpha  occ. eigenvalues --   -0.79699  -0.76760  -0.72025  -0.66135  -0.62171
 Alpha  occ. eigenvalues --   -0.59345  -0.57434  -0.56343  -0.51182  -0.48467
 Alpha  occ. eigenvalues --   -0.47629  -0.46357  -0.45106  -0.44097  -0.35630
 Alpha virt. eigenvalues --    0.19693   0.23451   0.26131   0.29477   0.29960
 Alpha virt. eigenvalues --    0.30589   0.31956   0.34578   0.35344   0.37857
 Alpha virt. eigenvalues --    0.39178   0.40376   0.42873   0.46939   0.50868
 Alpha virt. eigenvalues --    0.54050   0.74679   0.77494   0.78121   0.81237
 Alpha virt. eigenvalues --    0.81838   0.85636   0.91979   0.93077   0.93703
 Alpha virt. eigenvalues --    0.96676   1.02430   1.03276   1.04188   1.10845
 Alpha virt. eigenvalues --    1.13208   1.14382   1.14659   1.15728   1.16359
 Alpha virt. eigenvalues --    1.16699   1.19779   1.21156   1.22274   1.23761
 Alpha virt. eigenvalues --    1.25192   1.25683   1.27254   1.37406   1.42323
 Alpha virt. eigenvalues --    1.51563   1.53554   1.55814   1.60962   1.63723
 Alpha virt. eigenvalues --    1.74357   1.93238   2.01957   2.02363   2.05266
 Alpha virt. eigenvalues --    2.10389   2.12626   2.15098   2.19685   2.21737
 Alpha virt. eigenvalues --    2.26961   2.31594   2.33880   2.36929   2.44135
 Alpha virt. eigenvalues --    2.45135   2.45871   2.52755   2.59006   2.60646
 Alpha virt. eigenvalues --    2.61918   2.73156   2.75530   2.83519   2.91634
 Alpha virt. eigenvalues --    2.93634   2.97495   2.99834   3.00875   3.04706
 Alpha virt. eigenvalues --    3.25992   4.09553   4.36773   4.62783   4.71362
 Alpha virt. eigenvalues --    4.92036   5.07429
          Condensed to atoms (all electrons):
               1          2          3          4          5          6
     1  N    7.062643   0.327214   0.296224  -0.033979  -0.047589  -0.085860
     2  H    0.327214   0.441601  -0.043773  -0.005417   0.005848  -0.000827
     3  C    0.296224  -0.043773   4.976218   0.402676   0.405491   0.335434
     4  H   -0.033979  -0.005417   0.402676   0.532444  -0.027297  -0.036117
     5  H   -0.047589   0.005848   0.405491  -0.027297   0.552197  -0.054276
     6  C   -0.085860  -0.000827   0.335434  -0.036117  -0.054276   5.209192
     7  H    0.002687   0.000994  -0.038705  -0.004283   0.003924   0.394831
     8  H    0.004443  -0.000024  -0.032634   0.001419  -0.002531   0.390018
     9  C   -0.085564  -0.000665  -0.062534   0.003866  -0.000360   0.321597
    10  H    0.002749   0.001046   0.003223  -0.000165  -0.000011  -0.039833
    11  H    0.004454  -0.000032   0.003144  -0.000066   0.000173  -0.034162
    12  C    0.287554  -0.043163  -0.096025   0.006280  -0.001954  -0.061257
    13  H   -0.028657  -0.005187   0.005255  -0.000077  -0.000188   0.003153
    14  H   -0.048980   0.005931  -0.002234  -0.000174   0.003528  -0.000303
    15  O    0.000173   0.000213  -0.000006   0.000000   0.000000  -0.000004
    16  H   -0.000011  -0.000006   0.000000  -0.000000  -0.000000   0.000000
    17  H   -0.000019  -0.000012   0.000001  -0.000000   0.000000   0.000001
               7          8          9         10         11         12
     1  N    0.002687   0.004443  -0.085564   0.002749   0.004454   0.287554
     2  H    0.000994  -0.000024  -0.000665   0.001046  -0.000032  -0.043163
     3  C   -0.038705  -0.032634  -0.062534   0.003223   0.003144  -0.096025
     4  H   -0.004283   0.001419   0.003866  -0.000165  -0.000066   0.006280
     5  H    0.003924  -0.002531  -0.000360  -0.000011   0.000173  -0.001954
     6  C    0.394831   0.390018   0.321597  -0.039833  -0.034162  -0.061257
     7  H    0.552231  -0.026727  -0.038587  -0.006414   0.002689   0.003254
     8  H   -0.026727   0.536189  -0.033325   0.002722  -0.003814   0.003040
     9  C   -0.038587  -0.033325   5.202437   0.395678   0.390737   0.330890
    10  H   -0.006414   0.002722   0.395678   0.553143  -0.026919  -0.038959
    11  H    0.002689  -0.003814   0.390737  -0.026919   0.537934  -0.031594
    12  C    0.003254   0.003040   0.330890  -0.038959  -0.031594   5.058323
    13  H   -0.000149  -0.000051  -0.029808  -0.003439   0.000861   0.402283
    14  H   -0.000015   0.000162  -0.056282   0.004025  -0.002672   0.402682
    15  O    0.000000   0.000000   0.000248   0.000253  -0.000008  -0.012723
    16  H   -0.000000  -0.000000  -0.000016  -0.000008   0.000001   0.000694
    17  H   -0.000000  -0.000000  -0.000029  -0.000018   0.000001   0.000671
              13         14         15         16         17
     1  N   -0.028657  -0.048980   0.000173  -0.000011  -0.000019
     2  H   -0.005187   0.005931   0.000213  -0.000006  -0.000012
     3  C    0.005255  -0.002234  -0.000006   0.000000   0.000001
     4  H   -0.000077  -0.000174   0.000000  -0.000000  -0.000000
     5  H   -0.000188   0.003528   0.000000  -0.000000   0.000000
     6  C    0.003153  -0.000303  -0.000004   0.000000   0.000001
     7  H   -0.000149  -0.000015   0.000000  -0.000000  -0.000000
     8  H   -0.000051   0.000162   0.000000  -0.000000  -0.000000
     9  C   -0.029808  -0.056282   0.000248  -0.000016  -0.000029
    10  H   -0.003439   0.004025   0.000253  -0.000008  -0.000018
    11  H    0.000861  -0.002672  -0.000008   0.000001   0.000001
    12  C    0.402283   0.402682  -0.012723   0.000694   0.000671
    13  H    0.410462  -0.022026  -0.002249   0.000716   0.000747
    14  H   -0.022026   0.566455   0.000352  -0.000032  -0.000011
    15  O   -0.002249   0.000352   8.353792   0.263543   0.262832
    16  H    0.000716  -0.000032   0.263543   0.311071  -0.017137
    17  H    0.000747  -0.000011   0.262832  -0.017137   0.314369
 Mulliken charges:
               1
     1  N   -0.657480
     2  H    0.316258
     3  C   -0.151755
     4  H    0.160889
     5  H    0.163046
     6  C   -0.341587
     7  H    0.154270
     8  H    0.161113
     9  C   -0.338283
    10  H    0.152927
    11  H    0.159274
    12  C   -0.209994
    13  H    0.268353
    14  H    0.149594
    15  O   -0.866417
    16  H    0.441186
    17  H    0.438605
 Sum of Mulliken charges =  -0.00000
 Mulliken charges with hydrogens summed into heavy atoms:
               1
     1  N   -0.341221
     3  C    0.172179
     6  C   -0.026204
     9  C   -0.026081
    12  C    0.207954
    15  O    0.013374
 Electronic spatial extent (au):  <R**2>=            919.4003
 Charge=             -0.0000 electrons
 Dipole moment (field-independent basis, Debye):
    X=             -2.6604    Y=              1.2975    Z=             -1.3077  Tot=              3.2359
 Quadrupole moment (field-independent basis, Debye-Ang):
   XX=            -21.6387   YY=            -44.3353   ZZ=            -35.1707
   XY=             -0.3330   XZ=              1.9519   YZ=              1.5584
 Traceless Quadrupole moment (field-independent basis, Debye-Ang):
   XX=             12.0762   YY=            -10.6204   ZZ=             -1.4558
   XY=             -0.3330   XZ=              1.9519   YZ=              1.5584
 Octapole moment (field-independent basis, Debye-Ang**2):
  XXX=           -106.3626  YYY=              5.1239  ZZZ=             -5.0607  XYY=             -4.8910
  XXY=             -2.8576  XXZ=             -5.5946  XZZ=            -14.8643  YZZ=             -1.7339
  YYZ=             -2.6193  XYZ=              2.0180
 Hexadecapole moment (field-independent basis, Debye-Ang**3):
 XXXX=           -402.9006 YYYY=           -251.0672 ZZZZ=            -85.0017 XXXY=             -0.9328
 XXXZ=             23.1581 YYYX=             -1.1095 YYYZ=              7.0455 ZZZX=             11.4413
 ZZZY=              1.9913 XXYY=           -180.8858 XXZZ=           -114.3554 YYZZ=            -51.0113
 XXYZ=             -1.3518 YYXZ=              1.1059 ZZXY=             -1.6703
 N-N= 2.496330450256D+02 E-N=-1.172375996787D+03  KE= 2.866859455164D+02
 Calling FoFJK, ICntrl=      2127 FMM=F ISym2X=0 I1Cent= 0 IOpClX= 0 NMat=1 NMatS=1 NMatT=0.
 ***** Axes restored to original set *****
 -------------------------------------------------------------------
 Center     Atomic                   Forces (Hartrees/Bohr)
 Number     Number              X              Y              Z
 -------------------------------------------------------------------
      1        7           0.016669340   -0.002710983    0.002073080
      2        1          -0.009704233   -0.000238576   -0.012820282
      3        6          -0.004550066    0.006691541    0.003065965
      4        1          -0.002129753   -0.006672061   -0.003279052
      5        1           0.004235134   -0.000513711    0.005150194
      6        6           0.005513758    0.002586221   -0.002122403
      7        1          -0.004806580   -0.001176601   -0.003734250
      8        1          -0.001150566    0.000030403    0.006126613
      9        6           0.000363568   -0.004264426   -0.000562084
     10        1          -0.003320960    0.002147930   -0.004474801
     11        1           0.000517814    0.004086659    0.005460758
     12        6          -0.008720794   -0.004657010    0.006821906
     13        1           0.004512054    0.010012993   -0.013140171
     14        1           0.004820169    0.001060830    0.003610890
     15        8          -0.005441008   -0.015279022    0.018414913
     16        1           0.007047639    0.006520595   -0.002027094
     17        1          -0.003855514    0.002375218   -0.008564183
 -------------------------------------------------------------------
 Cartesian Forces:  Max     0.018414913 RMS     0.006589886
 -----------------------------------------------------------------------------------------------
                       Internal Coordinate Forces (Hartree/Bohr or radian)
  Cent   Atom   N1       Length/X         N2         Alpha/Y        N3         Beta/Z          J
 -----------------------------------------------------------------------------------------------
      1  N            0.016669(     1)     -0.002711(    19)      0.002073(    37)
      2  H           -0.009704(     2)     -0.000239(    20)     -0.012820(    38)
      3  C           -0.004550(     3)      0.006692(    21)      0.003066(    39)
      4  H           -0.002130(     4)     -0.006672(    22)     -0.003279(    40)
      5  H            0.004235(     5)     -0.000514(    23)      0.005150(    41)
      6  C            0.005514(     6)      0.002586(    24)     -0.002122(    42)
      7  H           -0.004807(     7)     -0.001177(    25)     -0.003734(    43)
      8  H           -0.001151(     8)      0.000030(    26)      0.006127(    44)
      9  C            0.000364(     9)     -0.004264(    27)     -0.000562(    45)
     10  H           -0.003321(    10)      0.002148(    28)     -0.004475(    46)
     11  H            0.000518(    11)      0.004087(    29)      0.005461(    47)
     12  C           -0.008909(    12)     -0.004680(    30)      0.006737(    48)
     13  H            0.002522(    13)      0.003553(    31)     -0.005289(    49)
     14  H            0.004750(    14)      0.001161(    32)      0.003668(    50)
         X       13   0.000000(    15)     12   0.000420(    33)     14  -0.000266(    51)     0
     15  O       13   0.010333(    16)     15   0.000420(    34)     12   0.000456(    52)     0
     16  H       16  -0.009634(    17)     13  -0.003327(    35)     15  -0.000459(    53)     0
     17  H       16  -0.009612(    18)     13  -0.002169(    36)     15   0.000194(    54)     0
 -----------------------------------------------------------------------------------------------
 Internal  Forces:  Max     0.016669340 RMS     0.005247741

 GradGradGradGradGradGradGradGradGradGradGradGradGradGradGradGradGradGrad
 Berny optimization.
 Search for a local minimum.
 Step number   1 out of a maximum of  100
 All quantities printed in internal units (Hartrees-Bohrs-Radians)
 Second derivative matrix not updated -- first step.
 The second derivative matrix:
                          rAH       dih
           rAH          0.04307
           dih         -0.00000   0.00000
 ITU=  0
     Eigenvalues ---    0.00000   0.04307
 RFO step:  Lambda=-2.37915516D-03 EMin= 0.00000000D+00
 Linear search not attempted -- first point.
 Variable       Old X    -DE/DX   Delta X   Delta X   Delta X     New X
                                 (Linear)    (Quad)   (Total)
   rAH        3.77945   0.01033   0.00000   0.22738   0.22738   4.00683
   dih        0.00000  -0.00027   0.00000  -0.11164  -0.11164  -0.11164
         Item               Value     Threshold  Converged?
 Maximum Force            0.010333     0.000450     NO 
 RMS     Force            0.007309     0.000300     NO 
 Maximum Displacement     0.227375     0.001800     NO 
 RMS     Displacement     0.179114     0.001200     NO 
 Predicted change in Energy=-1.265901D-03
 GradGradGradGradGradGradGradGradGradGradGradGradGradGradGradGradGradGrad

 ---------------------------------------------------------------------------------------------------
                            Z-MATRIX (ANGSTROMS AND DEGREES)
   CD    Cent   Atom    N1       Length/X        N2       Alpha/Y        N3        Beta/Z          J
 ---------------------------------------------------------------------------------------------------
      1      1  N        0   0.844000          0.456000          0.923000
      2      2  H        0   1.372000          0.495000          1.798000
      3      3  C        0   1.643000          1.125000         -0.113000
      4      4  H        0   2.000000          2.097000          0.243000
      5      5  H        0   0.987000          1.307000         -0.971000
      6      6  C        0   2.779000          0.153000         -0.504000
      7      7  H        0   3.689000          0.384000          0.059000
      8      8  H        0   3.031000          0.222000         -1.566000
      9      9  C        0   2.231000         -1.240000         -0.112000
     10     10  H        0   2.866000         -1.707000          0.647000
     11     11  H        0   2.185000         -1.928000         -0.962000
     12     12  C        0   0.830000         -0.941000          0.469000
     13     13  H        0   0.542000         -1.609000          1.286000
     14     14  H        0   0.068000         -1.027000         -0.314000
     15         X       13   1.000000(    14)     12   90.000(    30)     14   -6.397(    45)      0
     16     15  O       13   2.120322(    15)     15   90.000(    31)     12  180.000(    46)      0
     17     16  H       16   0.957200(    16)     13  127.740(    32)     15    0.000(    47)      0
     18     17  H       16   0.957200(    17)     13  127.740(    33)     15  180.000(    48)      0
 ---------------------------------------------------------------------------------------------------
                         Z-Matrix orientation:                         
 ---------------------------------------------------------------------
 Center     Atomic      Atomic             Coordinates (Angstroms)
 Number     Number       Type             X           Y           Z
 ---------------------------------------------------------------------
      1          7           0        0.844000    0.456000    0.923000
      2          1           0        1.372000    0.495000    1.798000
      3          6           0        1.643000    1.125000   -0.113000
      4          1           0        2.000000    2.097000    0.243000
      5          1           0        0.987000    1.307000   -0.971000
      6          6           0        2.779000    0.153000   -0.504000
      7          1           0        3.689000    0.384000    0.059000
      8          1           0        3.031000    0.222000   -1.566000
      9          6           0        2.231000   -1.240000   -0.112000
     10          1           0        2.866000   -1.707000    0.647000
     11          1           0        2.185000   -1.928000   -0.962000
     12          6           0        0.830000   -0.941000    0.469000
     13          1           0        0.542000   -1.609000    1.286000
     14          1           0        0.068000   -1.027000   -0.314000
     15         -1           0       -0.323862   -1.800809    0.823948
     16          8           0       -0.016225   -2.903772    2.869576
     17          1           0       -0.825887   -3.406730    2.957396
     18          1           0        0.484942   -3.116351    3.656897
 ---------------------------------------------------------------------
                    Distance matrix (angstroms):
                    1          2          3          4          5
     1  N    0.000000
     2  H    1.022707   0.000000
     3  C    1.469441   2.030335   0.000000
     4  H    2.119343   2.319227   1.094974   0.000000
     5  H    2.081318   2.911173   1.095274   1.767502   0.000000
     6  C    2.423296   2.719525   1.545368   2.223508   2.181987
     7  H    2.974173   2.899126   2.182838   2.412664   3.035397
     8  H    3.321573   3.760759   2.202989   2.801975   2.389390
     9  C    2.423099   2.719597   2.437000   3.363771   2.961862
    10  H    2.973757   2.899248   3.177035   3.922192   3.902917
    11  H    3.321891   3.761582   3.214868   4.205577   3.449712
    12  C    1.468986   2.030296   2.295223   3.263345   2.674276
    13  H    2.118301   2.319021   3.262539   4.116801   3.714180
    14  H    2.081258   2.911605   2.674347   3.715138   2.593023
    15  X    2.543010   3.015869   3.647845   4.575013   3.820821
    16  O    3.977086   3.824539   5.280132   5.997649   5.786803
    17  H    4.674182   4.625841   6.004941   6.756081   6.398289
    18  H    4.512738   4.157430   5.791570   6.413199   6.421489
                    6          7          8          9         10
     6  C    0.000000
     7  H    1.094728   0.000000
     8  H    1.093668   1.760634   0.000000
     9  C    1.547390   2.189151   2.211687   0.000000
    10  H    2.189057   2.322790   2.940346   1.094255   0.000000
    11  H    2.212049   2.941054   2.388102   1.094514   1.761103
    12  C    2.437656   3.177673   3.215306   1.545886   2.182598
    13  H    3.363467   3.921886   4.204948   2.223350   2.412240
    14  H    2.962773   3.904061   3.450634   2.182829   3.035577
    15  X    3.899816   4.632666   4.588977   2.778098   3.196143
    16  O    5.342112   5.695391   6.223373   4.087537   3.831361
    17  H    6.135809   6.569212   6.964508   4.843601   4.675152
    18  H    5.767531   5.955107   6.701168   4.557850   4.088421
                   11         12         13         14         15
    11  H    0.000000
    12  C    2.204077   0.000000
    13  H    2.802626   1.093918   0.000000
    14  H    2.390271   1.095960   1.767314   0.000000
    15  X    3.082236   1.482112   1.000000   1.430825   0.000000
    16  O    4.525318   3.214240   2.120322   3.696556   2.344305
    17  H    5.158852   3.874778   2.810074   4.142968   2.717096
    18  H    5.063258   3.874778   2.810074   4.506357   3.226517
                   16         17         18
    16  O    0.000000
    17  H    0.957200   0.000000
    18  H    0.957200   1.513901   0.000000
 Stoichiometry    C4H11NO
 Framework group  C1[X(C4H11NO)]
 Deg. of freedom    45
 Full point group                 C1      NOp   1
 Largest Abelian subgroup         C1      NOp   1
 Largest concise Abelian subgroup C1      NOp   1
                         Standard orientation:                         
 ---------------------------------------------------------------------
 Center     Atomic      Atomic             Coordinates (Angstroms)
 Number     Number       Type             X           Y           Z
 ---------------------------------------------------------------------
      1          7           0        0.401508   -1.189407   -0.055447
      2          1           0        0.122713   -1.222491   -1.038864
      3          6           0        1.821462   -0.814740   -0.004335
      4          1           0        2.407333   -1.428144   -0.696765
      5          1           0        2.182371   -1.022265    1.008731
      6          6           0        1.899014    0.699948   -0.300758
      7          1           0        2.102331    0.870616   -1.362814
      8          1           0        2.699051    1.188155    0.262894
      9          6           0        0.495291    1.228079    0.080108
     10          1           0       -0.004683    1.663291   -0.790530
     11          1           0        0.533039    2.003544    0.851592
     12          6           0       -0.260918   -0.031823    0.560272
     13          1           0       -1.327290   -0.023164    0.316484
     14          1           0       -0.170064   -0.137927    1.647294
     15          8           0       -3.394219   -0.006382   -0.156048
     16          1           0       -4.131532   -0.160180    0.434670
     17          1           0       -3.799165    0.156691   -1.007904
 ---------------------------------------------------------------------
 Rotational constants (GHZ):           6.2588455           1.4649433           1.2791131
 Standard basis: 6-31G(d) (6D, 7F)
 There are   112 symmetry adapted cartesian basis functions of A   symmetry.
 There are   112 symmetry adapted basis functions of A   symmetry.
   112 basis functions,   212 primitive gaussians,   112 cartesian basis functions
    25 alpha electrons       25 beta electrons
       nuclear repulsion energy       248.2046543461 Hartrees.
 NAtoms=   17 NActive=   17 NUniq=   17 SFac= 1.00D+00 NAtFMM=   60 NAOKFM=F Big=F
 Integral buffers will be    131072 words long.
 Raffenetti 1 integral format.
 Two-electron integral symmetry is turned on.
 One-electron integrals computed using PRISM.
 NBasis=   112 RedAO= T EigKep=  3.13D-03  NBF=   112
 NBsUse=   112 1.00D-06 EigRej= -1.00D+00 NBFU=   112
 Initial guess from the checkpoint file:  "PRLD-DON-H51.chk"
 B after Tr=    -0.000000   -0.000000   -0.000000
         Rot=    0.999993   -0.003427   -0.001494    0.000035 Ang=  -0.43 deg.
 ExpMin= 1.61D-01 ExpMax= 5.48D+03 ExpMxC= 8.25D+02 IAcc=2 IRadAn=         4 AccDes= 0.00D+00
 Harris functional with IExCor=  205 and IRadAn=       4 diagonalized for initial guess.
 HarFok:  IExCor=  205 AccDes= 0.00D+00 IRadAn=         4 IDoV= 1 UseB2=F ITyADJ=14
 ICtDFT=  3500011 ScaDFX=  1.000000  1.000000  1.000000  1.000000
 FoFCou: FMM=F IPFlag=           0 FMFlag=      100000 FMFlg1=           0
         NFxFlg=           0 DoJE=T BraDBF=F KetDBF=T FulRan=T
         wScrn=  0.000000 ICntrl=       500 IOpCl=  0 I1Cent=   200000004 NGrid=           0
         NMat0=    1 NMatS0=      1 NMatT0=    0 NMatD0=    1 NMtDS0=    0 NMtDT0=    0
 Petite list used in FoFCou.
 Keep R1 ints in memory in canonical form, NReq=20923226.
 Requested convergence on RMS density matrix=1.00D-08 within 128 cycles.
 Requested convergence on MAX density matrix=1.00D-06.
 Requested convergence on             energy=1.00D-06.
 No special actions if energy rises.
 SCF Done:  E(RHF) =  -287.152416030     A.U. after    9 cycles
            NFock=  9  Conv=0.96D-08     -V/T= 2.0017
 Calling FoFJK, ICntrl=      2127 FMM=F ISym2X=0 I1Cent= 0 IOpClX= 0 NMat=1 NMatS=1 NMatT=0.
 ***** Axes restored to original set *****
 -------------------------------------------------------------------
 Center     Atomic                   Forces (Hartrees/Bohr)
 Number     Number              X              Y              Z
 -------------------------------------------------------------------
      1        7           0.016657009   -0.002939723    0.002400490
      2        1          -0.009789169   -0.000251710   -0.012809509
      3        6          -0.004584110    0.006622434    0.002914529
      4        1          -0.002183640   -0.006739159   -0.003245828
      5        1           0.004246616   -0.000500487    0.005150274
      6        6           0.005464473    0.002609535   -0.002088442
      7        1          -0.004846544   -0.001214555   -0.003733975
      8        1          -0.001175585    0.000004357    0.006152570
      9        6           0.000522877   -0.004548273   -0.000432053
     10        1          -0.003358370    0.002190777   -0.004522038
     11        1           0.000465350    0.004113129    0.005503611
     12        6          -0.008732662   -0.004432248    0.006773597
     13        1           0.003695905    0.008155359   -0.010826890
     14        1           0.004850304    0.000882085    0.003933071
     15        8          -0.004575257   -0.013053695    0.015682419
     16        1           0.007621927    0.006105207   -0.002403018
     17        1          -0.004279124    0.002996966   -0.008448809
 -------------------------------------------------------------------
 Cartesian Forces:  Max     0.016657009 RMS     0.006216737
 -----------------------------------------------------------------------------------------------
                       Internal Coordinate Forces (Hartree/Bohr or radian)
  Cent   Atom   N1       Length/X         N2         Alpha/Y        N3         Beta/Z          J
 -----------------------------------------------------------------------------------------------
      1  N            0.016657(     1)     -0.002940(    19)      0.002400(    37)
      2  H           -0.009789(     2)     -0.000252(    20)     -0.012810(    38)
      3  C           -0.004584(     3)      0.006622(    21)      0.002915(    39)
      4  H           -0.002184(     4)     -0.006739(    22)     -0.003246(    40)
      5  H            0.004247(     5)     -0.000500(    23)      0.005150(    41)
      6  C            0.005464(     6)      0.002610(    24)     -0.002088(    42)
      7  H           -0.004847(     7)     -0.001215(    25)     -0.003734(    43)
      8  H           -0.001176(     8)      0.000004(    26)      0.006153(    44)
      9  C            0.000523(     9)     -0.004548(    27)     -0.000432(    45)
     10  H           -0.003358(    10)      0.002191(    28)     -0.004522(    46)
     11  H            0.000465(    11)      0.004113(    29)      0.005504(    47)
     12  C           -0.008906(    12)     -0.004485(    30)      0.006669(    48)
     13  H            0.002718(    13)      0.004140(    31)     -0.005958(    49)
     14  H            0.004769(    14)      0.000999(    32)      0.004000(    50)
         X       13  -0.000000(    15)     12   0.000479(    33)     14  -0.000310(    51)     0
     15  O       13   0.006345(    16)     15   0.000479(    34)     12   0.000385(    52)     0
     16  H       16  -0.009876(    17)     13  -0.003396(    35)     15  -0.000428(    53)     0
     17  H       16  -0.009855(    18)     13  -0.002245(    36)     15   0.000118(    54)     0
 -----------------------------------------------------------------------------------------------
 Internal  Forces:  Max     0.016657009 RMS     0.005183798

 GradGradGradGradGradGradGradGradGradGradGradGradGradGradGradGradGradGrad
 Berny optimization.
 Search for a local minimum.
 Step number   2 out of a maximum of  100
 All quantities printed in internal units (Hartrees-Bohrs-Radians)
 Update second derivatives using D2CorN and points    1    2
 DE= -1.89D-03 DEPred=-1.27D-03 R= 1.50D+00
 TightC=F SS=  1.41D+00  RLast= 2.53D-01 DXNew= 5.0454D-01 7.5992D-01
 Trust test= 1.50D+00 RLast= 2.53D-01 DXMaxT set to 5.05D-01
 The second derivative matrix:
                          rAH       dih
           rAH          0.02250
           dih          0.00513  -0.00008
 ITU=  1  0
 Linear search step of   0.507 exceeds DXMaxT=   0.505 but not scaled.
 Quartic linear search produced a step of  2.00000.
 Variable       Old X    -DE/DX   Delta X   Delta X   Delta X     New X
                                 (Linear)    (Quad)   (Total)
   rAH        4.00683   0.00635   0.45475   0.00000   0.45475   4.46158
   dih       -0.11164  -0.00031  -0.22329   0.00000  -0.22329  -0.33493
         Item               Value     Threshold  Converged?
 Maximum Force            0.006345     0.000450     NO 
 RMS     Force            0.004492     0.000300     NO 
 Maximum Displacement     0.454750     0.001800     NO 
 RMS     Displacement     0.358229     0.001200     NO 
 Predicted change in Energy=-1.151119D-03
 GradGradGradGradGradGradGradGradGradGradGradGradGradGradGradGradGradGrad

 ---------------------------------------------------------------------------------------------------
                            Z-MATRIX (ANGSTROMS AND DEGREES)
   CD    Cent   Atom    N1       Length/X        N2       Alpha/Y        N3        Beta/Z          J
 ---------------------------------------------------------------------------------------------------
      1      1  N        0   0.844000          0.456000          0.923000
      2      2  H        0   1.372000          0.495000          1.798000
      3      3  C        0   1.643000          1.125000         -0.113000
      4      4  H        0   2.000000          2.097000          0.243000
      5      5  H        0   0.987000          1.307000         -0.971000
      6      6  C        0   2.779000          0.153000         -0.504000
      7      7  H        0   3.689000          0.384000          0.059000
      8      8  H        0   3.031000          0.222000         -1.566000
      9      9  C        0   2.231000         -1.240000         -0.112000
     10     10  H        0   2.866000         -1.707000          0.647000
     11     11  H        0   2.185000         -1.928000         -0.962000
     12     12  C        0   0.830000         -0.941000          0.469000
     13     13  H        0   0.542000         -1.609000          1.286000
     14     14  H        0   0.068000         -1.027000         -0.314000
     15         X       13   1.000000(    14)     12   90.000(    30)     14  -19.190(    45)      0
     16     15  O       13   2.360965(    15)     15   90.000(    31)     12  180.000(    46)      0
     17     16  H       16   0.957200(    16)     13  127.740(    32)     15    0.000(    47)      0
     18     17  H       16   0.957200(    17)     13  127.740(    33)     15  180.000(    48)      0
 ---------------------------------------------------------------------------------------------------
                         Z-Matrix orientation:                         
 ---------------------------------------------------------------------
 Center     Atomic      Atomic             Coordinates (Angstroms)
 Number     Number       Type             X           Y           Z
 ---------------------------------------------------------------------
      1          7           0        0.844000    0.456000    0.923000
      2          1           0        1.372000    0.495000    1.798000
      3          6           0        1.643000    1.125000   -0.113000
      4          1           0        2.000000    2.097000    0.243000
      5          1           0        0.987000    1.307000   -0.971000
      6          6           0        2.779000    0.153000   -0.504000
      7          1           0        3.689000    0.384000    0.059000
      8          1           0        3.031000    0.222000   -1.566000
      9          6           0        2.231000   -1.240000   -0.112000
     10          1           0        2.866000   -1.707000    0.647000
     11          1           0        2.185000   -1.928000   -0.962000
     12          6           0        0.830000   -0.941000    0.469000
     13          1           0        0.542000   -1.609000    1.286000
     14          1           0        0.068000   -1.027000   -0.314000
     15         -1           0       -0.396568   -1.625911    0.941319
     16          8           0       -0.079580   -3.050721    3.049302
     17          1           0       -0.944277   -3.421290    3.225966
     18          1           0        0.476621   -3.395688    3.747779
 ---------------------------------------------------------------------
                    Distance matrix (angstroms):
                    1          2          3          4          5
     1  N    0.000000
     2  H    1.022707   0.000000
     3  C    1.469441   2.030335   0.000000
     4  H    2.119343   2.319227   1.094974   0.000000
     5  H    2.081318   2.911173   1.095274   1.767502   0.000000
     6  C    2.423296   2.719525   1.545368   2.223508   2.181987
     7  H    2.974173   2.899126   2.182838   2.412664   3.035397
     8  H    3.321573   3.760759   2.202989   2.801975   2.389390
     9  C    2.423099   2.719597   2.437000   3.363771   2.961862
    10  H    2.973757   2.899248   3.177035   3.922192   3.902917
    11  H    3.321891   3.761582   3.214868   4.205577   3.449712
    12  C    1.468986   2.030296   2.295223   3.263345   2.674276
    13  H    2.118301   2.319021   3.262539   4.116801   3.714180
    14  H    2.081258   2.911605   2.674347   3.715138   2.593023
    15  X    2.423571   2.891366   3.583146   4.482327   3.764730
    16  O    4.203719   4.030506   5.513990   6.220853   6.024131
    17  H    4.851285   4.768811   6.205760   6.929530   6.610680
    18  H    4.790600   4.443062   6.058273   6.691321   6.681515
                    6          7          8          9         10
     6  C    0.000000
     7  H    1.094728   0.000000
     8  H    1.093668   1.760634   0.000000
     9  C    1.547390   2.189151   2.211687   0.000000
    10  H    2.189057   2.322790   2.940346   1.094255   0.000000
    11  H    2.212049   2.941054   2.388102   1.094514   1.761103
    12  C    2.437656   3.177673   3.215306   1.545886   2.182598
    13  H    3.363467   3.921886   4.204948   2.223350   2.412240
    14  H    2.962773   3.904061   3.450634   2.182829   3.035577
    15  X    3.916338   4.637897   4.631376   2.857012   3.276820
    16  O    5.573264   5.911126   6.456580   4.314084   4.031512
    17  H    6.367966   6.780646   7.213829   5.097296   4.909997
    18  H    5.997646   6.181627   6.917280   4.756336   4.263288
                   11         12         13         14         15
    11  H    0.000000
    12  C    2.204077   0.000000
    13  H    2.802626   1.093918   0.000000
    14  H    2.390271   1.095960   1.767314   0.000000
    15  X    3.221548   1.482112   1.000000   1.466405   0.000000
    16  O    4.741242   3.454883   2.360965   3.927980   2.564012
    17  H    5.437035   4.111054   3.042513   4.391889   2.956854
    18  H    5.220602   4.111054   3.042513   4.719714   3.430858
                   16         17         18
    16  O    0.000000
    17  H    0.957200   0.000000
    18  H    0.957200   1.513901   0.000000
 Stoichiometry    C4H11NO
 Framework group  C1[X(C4H11NO)]
 Deg. of freedom    45
 Full point group                 C1      NOp   1
 Largest Abelian subgroup         C1      NOp   1
 Largest concise Abelian subgroup C1      NOp   1
                         Standard orientation:                         
 ---------------------------------------------------------------------
 Center     Atomic      Atomic             Coordinates (Angstroms)
 Number     Number       Type             X           Y           Z
 ---------------------------------------------------------------------
      1          7           0        0.447932   -1.189351   -0.059017
      2          1           0        0.156967   -1.215258   -1.039118
      3          6           0        1.868380   -0.814825   -0.022763
      4          1           0        2.445669   -1.423026   -0.726892
      5          1           0        2.241840   -1.029723    0.984198
      6          6           0        1.942128    0.702012   -0.308989
      7          1           0        2.132247    0.880512   -1.372203
      8          1           0        2.749053    1.186204    0.248271
      9          6           0        0.543194    1.227091    0.093121
     10          1           0        0.032427    1.668600   -0.768030
     11          1           0        0.590442    1.996875    0.869754
     12          6           0       -0.206902   -0.036434    0.573356
     13          1           0       -1.276216   -0.026168    0.342877
     14          1           0       -0.102568   -0.150503    1.658359
     15          8           0       -3.584077   -0.004012   -0.154556
     16          1           0       -4.303954   -0.321847    0.390413
     17          1           0       -4.009610    0.324819   -0.946405
 ---------------------------------------------------------------------
 Rotational constants (GHZ):           6.2330537           1.3471016           1.1883979
 Standard basis: 6-31G(d) (6D, 7F)
 There are   112 symmetry adapted cartesian basis functions of A   symmetry.
 There are   112 symmetry adapted basis functions of A   symmetry.
   112 basis functions,   212 primitive gaussians,   112 cartesian basis functions
    25 alpha electrons       25 beta electrons
       nuclear repulsion energy       245.5862787634 Hartrees.
 NAtoms=   17 NActive=   17 NUniq=   17 SFac= 1.00D+00 NAtFMM=   60 NAOKFM=F Big=F
 Integral buffers will be    131072 words long.
 Raffenetti 1 integral format.
 Two-electron integral symmetry is turned on.
 One-electron integrals computed using PRISM.
 NBasis=   112 RedAO= T EigKep=  3.14D-03  NBF=   112
 NBsUse=   112 1.00D-06 EigRej= -1.00D+00 NBFU=   112
 Initial guess from the checkpoint file:  "PRLD-DON-H51.chk"
 B after Tr=    -0.000000    0.000000    0.000000
         Rot=    0.999977   -0.006107   -0.002788   -0.000001 Ang=  -0.77 deg.
 ExpMin= 1.61D-01 ExpMax= 5.48D+03 ExpMxC= 8.25D+02 IAcc=2 IRadAn=         4 AccDes= 0.00D+00
 Harris functional with IExCor=  205 and IRadAn=       4 diagonalized for initial guess.
 HarFok:  IExCor=  205 AccDes= 0.00D+00 IRadAn=         4 IDoV= 1 UseB2=F ITyADJ=14
 ICtDFT=  3500011 ScaDFX=  1.000000  1.000000  1.000000  1.000000
 FoFCou: FMM=F IPFlag=           0 FMFlag=      100000 FMFlg1=           0
         NFxFlg=           0 DoJE=T BraDBF=F KetDBF=T FulRan=T
         wScrn=  0.000000 ICntrl=       500 IOpCl=  0 I1Cent=   200000004 NGrid=           0
         NMat0=    1 NMatS0=      1 NMatT0=    0 NMatD0=    1 NMtDS0=    0 NMtDT0=    0
 Petite list used in FoFCou.
 Keep R1 ints in memory in canonical form, NReq=20922660.
 Requested convergence on RMS density matrix=1.00D-08 within 128 cycles.
 Requested convergence on MAX density matrix=1.00D-06.
 Requested convergence on             energy=1.00D-06.
 No special actions if energy rises.
 SCF Done:  E(RHF) =  -287.154296645     A.U. after   11 cycles
            NFock= 11  Conv=0.63D-08     -V/T= 2.0017
 Calling FoFJK, ICntrl=      2127 FMM=F ISym2X=0 I1Cent= 0 IOpClX= 0 NMat=1 NMatS=1 NMatT=0.
 ***** Axes restored to original set *****
 -------------------------------------------------------------------
 Center     Atomic                   Forces (Hartrees/Bohr)
 Number     Number              X              Y              Z
 -------------------------------------------------------------------
      1        7           0.016603097   -0.003295448    0.002918168
      2        1          -0.009873180   -0.000245987   -0.012792474
      3        6          -0.004623020    0.006540700    0.002673810
      4        1          -0.002263936   -0.006842115   -0.003194104
      5        1           0.004261663   -0.000483464    0.005157784
      6        6           0.005397930    0.002648287   -0.002030239
      7        1          -0.004910253   -0.001274364   -0.003733857
      8        1          -0.001217574   -0.000035449    0.006193906
      9        6           0.000761961   -0.004974946   -0.000240299
     10        1          -0.003403103    0.002258289   -0.004583517
     11        1           0.000386748    0.004152799    0.005559421
     12        6          -0.008569904   -0.003728059    0.006188956
     13        1           0.002793020    0.006104484   -0.008262056
     14        1           0.004875140    0.000615305    0.004406946
     15        8          -0.003774624   -0.010783089    0.012925722
     16        1           0.008410583    0.005031414   -0.003291906
     17        1          -0.004854550    0.004311644   -0.007896261
 -------------------------------------------------------------------
 Cartesian Forces:  Max     0.016603097 RMS     0.005870131
 -----------------------------------------------------------------------------------------------
                       Internal Coordinate Forces (Hartree/Bohr or radian)
  Cent   Atom   N1       Length/X         N2         Alpha/Y        N3         Beta/Z          J
 -----------------------------------------------------------------------------------------------
      1  N            0.016603(     1)     -0.003295(    19)      0.002918(    37)
      2  H           -0.009873(     2)     -0.000246(    20)     -0.012792(    38)
      3  C           -0.004623(     3)      0.006541(    21)      0.002674(    39)
      4  H           -0.002264(     4)     -0.006842(    22)     -0.003194(    40)
      5  H            0.004262(     5)     -0.000483(    23)      0.005158(    41)
      6  C            0.005398(     6)      0.002648(    24)     -0.002030(    42)
      7  H           -0.004910(     7)     -0.001274(    25)     -0.003734(    43)
      8  H           -0.001218(     8)     -0.000035(    26)      0.006194(    44)
      9  C            0.000762(     9)     -0.004975(    27)     -0.000240(    45)
     10  H           -0.003403(    10)      0.002258(    28)     -0.004584(    46)
     11  H            0.000387(    11)      0.004153(    29)      0.005559(    47)
     12  C           -0.008725(    12)     -0.003819(    30)      0.006060(    48)
     13  H            0.002816(    13)      0.004632(    31)     -0.006466(    49)
     14  H            0.004789(    14)      0.000738(    32)      0.004477(    50)
         X       13   0.000000(    15)     12   0.000543(    33)     14  -0.000327(    51)     0
     15  O       13   0.002235(    16)     15   0.000543(    34)     12   0.000193(    52)     0
     16  H       16  -0.010153(    17)     13  -0.003501(    35)     15  -0.000336(    53)     0
     17  H       16  -0.010137(    18)     13  -0.002397(    36)     15   0.000009(    54)     0
 -----------------------------------------------------------------------------------------------
 Internal  Forces:  Max     0.016603097 RMS     0.005159829

 GradGradGradGradGradGradGradGradGradGradGradGradGradGradGradGradGradGrad
 Berny optimization.
 Search for a local minimum.
 Step number   3 out of a maximum of  100
 All quantities printed in internal units (Hartrees-Bohrs-Radians)
 Update second derivatives using D2CorN and points    2    3
 The second derivative matrix:
                          rAH       dih
           rAH          0.01368
           dih          0.00523   0.00195
 ITU=  0  1  0
 Linear search step of   1.013 exceeds DXMaxT=   0.505 scaled by   0.996
 Quartic linear search produced a step of  1.99181.
 Variable       Old X    -DE/DX   Delta X   Delta X   Delta X     New X
                                 (Linear)    (Quad)   (Total)
   rAH        4.46158   0.00223   0.90578   0.00000   0.90578   5.36735
   dih       -0.33493  -0.00033  -0.44475   0.00000  -0.44475  -0.77968
         Item               Value     Threshold  Converged?
 Maximum Force            0.002235     0.000450     NO 
 RMS     Force            0.001597     0.000300     NO 
 Maximum Displacement     0.905777     0.001800     NO 
 RMS     Displacement     0.713524     0.001200     NO 
 Predicted change in Energy=-1.530899D-03
 GradGradGradGradGradGradGradGradGradGradGradGradGradGradGradGradGradGrad

 ---------------------------------------------------------------------------------------------------
                            Z-MATRIX (ANGSTROMS AND DEGREES)
   CD    Cent   Atom    N1       Length/X        N2       Alpha/Y        N3        Beta/Z          J
 ---------------------------------------------------------------------------------------------------
      1      1  N        0   0.844000          0.456000          0.923000
      2      2  H        0   1.372000          0.495000          1.798000
      3      3  C        0   1.643000          1.125000         -0.113000
      4      4  H        0   2.000000          2.097000          0.243000
      5      5  H        0   0.987000          1.307000         -0.971000
      6      6  C        0   2.779000          0.153000         -0.504000
      7      7  H        0   3.689000          0.384000          0.059000
      8      8  H        0   3.031000          0.222000         -1.566000
      9      9  C        0   2.231000         -1.240000         -0.112000
     10     10  H        0   2.866000         -1.707000          0.647000
     11     11  H        0   2.185000         -1.928000         -0.962000
     12     12  C        0   0.830000         -0.941000          0.469000
     13     13  H        0   0.542000         -1.609000          1.286000
     14     14  H        0   0.068000         -1.027000         -0.314000
     15         X       13   1.000000(    14)     12   90.000(    30)     14  -44.673(    45)      0
     16     15  O       13   2.840282(    15)     15   90.000(    31)     12  180.000(    46)      0
     17     16  H       16   0.957200(    16)     13  127.740(    32)     15    0.000(    47)      0
     18     17  H       16   0.957200(    17)     13  127.740(    33)     15  180.000(    48)      0
 ---------------------------------------------------------------------------------------------------
                         Z-Matrix orientation:                         
 ---------------------------------------------------------------------
 Center     Atomic      Atomic             Coordinates (Angstroms)
 Number     Number       Type             X           Y           Z
 ---------------------------------------------------------------------
      1          7           0        0.844000    0.456000    0.923000
      2          1           0        1.372000    0.495000    1.798000
      3          6           0        1.643000    1.125000   -0.113000
      4          1           0        2.000000    2.097000    0.243000
      5          1           0        0.987000    1.307000   -0.971000
      6          6           0        2.779000    0.153000   -0.504000
      7          1           0        3.689000    0.384000    0.059000
      8          1           0        3.031000    0.222000   -1.566000
      9          6           0        2.231000   -1.240000   -0.112000
     10          1           0        2.866000   -1.707000    0.647000
     11          1           0        2.185000   -1.928000   -0.962000
     12          6           0        0.830000   -0.941000    0.469000
     13          1           0        0.542000   -1.609000    1.286000
     14          1           0        0.068000   -1.027000   -0.314000
     15         -1           0       -0.401251   -1.283643    1.219516
     16          8           0       -0.205772   -3.343415    3.407283
     17          1           0       -1.074013   -3.454904    3.794528
     18          1           0        0.353975   -3.947463    3.895178
 ---------------------------------------------------------------------
                    Distance matrix (angstroms):
                    1          2          3          4          5
     1  N    0.000000
     2  H    1.022707   0.000000
     3  C    1.469441   2.030335   0.000000
     4  H    2.119343   2.319227   1.094974   0.000000
     5  H    2.081318   2.911173   1.095274   1.767502   0.000000
     6  C    2.423296   2.719525   1.545368   2.223508   2.181987
     7  H    2.974173   2.899126   2.182838   2.412664   3.035397
     8  H    3.321573   3.760759   2.202989   2.801975   2.389390
     9  C    2.423099   2.719597   2.437000   3.363771   2.961862
    10  H    2.973757   2.899248   3.177035   3.922192   3.902917
    11  H    3.321891   3.761582   3.214868   4.205577   3.449712
    12  C    1.468986   2.030296   2.295223   3.263345   2.674276
    13  H    2.118301   2.319021   3.262539   4.116801   3.714180
    14  H    2.081258   2.911605   2.674347   3.715138   2.593023
    15  X    2.159844   2.577330   3.428720   4.260086   3.665655
    16  O    4.659317   4.451133   5.981395   6.669050   6.497571
    17  H    5.217242   5.056762   6.605033   7.272314   7.045123
    18  H    5.335209   5.016972   6.592189   7.251437   7.189561
                    6          7          8          9         10
     6  C    0.000000
     7  H    1.094728   0.000000
     8  H    1.093668   1.760634   0.000000
     9  C    1.547390   2.189151   2.211687   0.000000
    10  H    2.189057   2.322790   2.940346   1.094255   0.000000
    11  H    2.212049   2.941054   2.388102   1.094514   1.761103
    12  C    2.437656   3.177673   3.215306   1.545886   2.182598
    13  H    3.363467   3.921886   4.204948   2.223350   2.412240
    14  H    2.962773   3.904061   3.450634   2.182829   3.035577
    15  X    3.892100   4.567054   4.669733   2.950184   3.343940
    16  O    6.035886   6.346170   6.922602   4.769441   4.442161
    17  H    6.807351   7.167820   7.688044   5.575829   5.337209
    18  H    6.484390   6.678340   7.373964   5.187587   4.677671
                   11         12         13         14         15
    11  H    0.000000
    12  C    2.204077   0.000000
    13  H    2.802626   1.093918   0.000000
    14  H    2.390271   1.095960   1.767314   0.000000
    15  X    3.444256   1.482112   1.000000   1.624110   0.000000
    16  O    5.177820   3.934200   2.840282   4.391888   3.011179
    17  H    5.964659   4.583025   3.508785   4.907027   3.434774
    18  H    5.569835   4.583025   3.508785   5.131088   3.850386
                   16         17         18
    16  O    0.000000
    17  H    0.957200   0.000000
    18  H    0.957200   1.513901   0.000000
 Stoichiometry    C4H11NO
 Framework group  C1[X(C4H11NO)]
 Deg. of freedom    45
 Full point group                 C1      NOp   1
 Largest Abelian subgroup         C1      NOp   1
 Largest concise Abelian subgroup C1      NOp   1
                         Standard orientation:                         
 ---------------------------------------------------------------------
 Center     Atomic      Atomic             Coordinates (Angstroms)
 Number     Number       Type             X           Y           Z
 ---------------------------------------------------------------------
      1          7           0        0.541498   -1.189643   -0.055732
      2          1           0        0.229414   -1.211509   -1.029414
      3          6           0        1.962138   -0.814159   -0.048575
      4          1           0        2.524480   -1.418831   -0.767681
      5          1           0        2.357445   -1.033148    0.949122
      6          6           0        2.028624    0.703969   -0.329694
      7          1           0        2.195572    0.887249   -1.395980
      8          1           0        2.847080    1.186363    0.212093
      9          6           0        0.638353    1.226187    0.104876
     10          1           0        0.108768    1.671042   -0.743086
     11          1           0        0.701858    1.992618    0.883664
     12          6           0       -0.100301   -0.040008    0.595694
     13          1           0       -1.174358   -0.029581    0.388448
     14          1           0        0.027562   -0.158722    1.677677
     15          8           0       -3.963070   -0.002508   -0.149653
     16          1           0       -4.634028   -0.585357    0.205782
     17          1           0       -4.442601    0.591510   -0.727082
 ---------------------------------------------------------------------
 Rotational constants (GHZ):           6.1869052           1.1484376           1.0302858
 Standard basis: 6-31G(d) (6D, 7F)
 There are   112 symmetry adapted cartesian basis functions of A   symmetry.
 There are   112 symmetry adapted basis functions of A   symmetry.
   112 basis functions,   212 primitive gaussians,   112 cartesian basis functions
    25 alpha electrons       25 beta electrons
       nuclear repulsion energy       241.1433090700 Hartrees.
 NAtoms=   17 NActive=   17 NUniq=   17 SFac= 1.00D+00 NAtFMM=   60 NAOKFM=F Big=F
 Integral buffers will be    131072 words long.
 Raffenetti 1 integral format.
 Two-electron integral symmetry is turned on.
 One-electron integrals computed using PRISM.
 NBasis=   112 RedAO= T EigKep=  3.15D-03  NBF=   112
 NBsUse=   112 1.00D-06 EigRej= -1.00D+00 NBFU=   112
 Initial guess from the checkpoint file:  "PRLD-DON-H51.chk"
 B after Tr=    -0.000000   -0.000000    0.000000
         Rot=    0.999965   -0.006895   -0.004760   -0.000207 Ang=  -0.96 deg.
 ExpMin= 1.61D-01 ExpMax= 5.48D+03 ExpMxC= 8.25D+02 IAcc=2 IRadAn=         4 AccDes= 0.00D+00
 Harris functional with IExCor=  205 and IRadAn=       4 diagonalized for initial guess.
 HarFok:  IExCor=  205 AccDes= 0.00D+00 IRadAn=         4 IDoV= 1 UseB2=F ITyADJ=14
 ICtDFT=  3500011 ScaDFX=  1.000000  1.000000  1.000000  1.000000
 FoFCou: FMM=F IPFlag=           0 FMFlag=      100000 FMFlg1=           0
         NFxFlg=           0 DoJE=T BraDBF=F KetDBF=T FulRan=T
         wScrn=  0.000000 ICntrl=       500 IOpCl=  0 I1Cent=   200000004 NGrid=           0
         NMat0=    1 NMatS0=      1 NMatT0=    0 NMatD0=    1 NMtDS0=    0 NMtDT0=    0
 Petite list used in FoFCou.
 Keep R1 ints in memory in canonical form, NReq=20921603.
 Requested convergence on RMS density matrix=1.00D-08 within 128 cycles.
 Requested convergence on MAX density matrix=1.00D-06.
 Requested convergence on             energy=1.00D-06.
 No special actions if energy rises.
 SCF Done:  E(RHF) =  -287.155101567     A.U. after   12 cycles
            NFock= 12  Conv=0.39D-08     -V/T= 2.0018
 Calling FoFJK, ICntrl=      2127 FMM=F ISym2X=0 I1Cent= 0 IOpClX= 0 NMat=1 NMatS=1 NMatT=0.
 ***** Axes restored to original set *****
 -------------------------------------------------------------------
 Center     Atomic                   Forces (Hartrees/Bohr)
 Number     Number              X              Y              Z
 -------------------------------------------------------------------
      1        7           0.016446380   -0.003743740    0.003580383
      2        1          -0.009870663   -0.000181975   -0.012786019
      3        6          -0.004630873    0.006493597    0.002354336
      4        1          -0.002361760   -0.006972746   -0.003130617
      5        1           0.004272428   -0.000469499    0.005187128
      6        6           0.005328494    0.002703418   -0.001950880
      7        1          -0.004995609   -0.001354727   -0.003735310
      8        1          -0.001277959   -0.000082416    0.006250645
      9        6           0.001064845   -0.005483253   -0.000007164
     10        1          -0.003451406    0.002336246   -0.004645204
     11        1           0.000294689    0.004200917    0.005607563
     12        6          -0.008146599   -0.002515201    0.004920669
     13        1           0.002196412    0.004754065   -0.006538020
     14        1           0.004854315    0.000315652    0.004941507
     15        8          -0.003456589   -0.009435376    0.011369948
     16        1           0.008691026    0.002558294   -0.005336861
     17        1          -0.004957130    0.006876744   -0.006082104
 -------------------------------------------------------------------
 Cartesian Forces:  Max     0.016446380 RMS     0.005674005
 -----------------------------------------------------------------------------------------------
                       Internal Coordinate Forces (Hartree/Bohr or radian)
  Cent   Atom   N1       Length/X         N2         Alpha/Y        N3         Beta/Z          J
 -----------------------------------------------------------------------------------------------
      1  N            0.016446(     1)     -0.003744(    19)      0.003580(    37)
      2  H           -0.009871(     2)     -0.000182(    20)     -0.012786(    38)
      3  C           -0.004631(     3)      0.006494(    21)      0.002354(    39)
      4  H           -0.002362(     4)     -0.006973(    22)     -0.003131(    40)
      5  H            0.004272(     5)     -0.000469(    23)      0.005187(    41)
      6  C            0.005328(     6)      0.002703(    24)     -0.001951(    42)
      7  H           -0.004996(     7)     -0.001355(    25)     -0.003735(    43)
      8  H           -0.001278(     8)     -0.000082(    26)      0.006251(    44)
      9  C            0.001065(     9)     -0.005483(    27)     -0.000007(    45)
     10  H           -0.003451(    10)      0.002336(    28)     -0.004645(    46)
     11  H            0.000295(    11)      0.004201(    29)      0.005608(    47)
     12  C           -0.008310(    12)     -0.002585(    30)      0.004806(    48)
     13  H            0.002689(    13)      0.004750(    31)     -0.006514(    49)
     14  H            0.004803(    14)      0.000390(    32)      0.004984(    50)
         X       13   0.000000(    15)     12   0.000476(    33)     14  -0.000197(    51)     0
     15  O       13  -0.000109(    16)     15   0.000476(    34)     12  -0.000139(    52)     0
     16  H       16  -0.010340(    17)     13  -0.003447(    35)     15  -0.000107(    53)     0
     17  H       16  -0.010339(    18)     13  -0.002536(    36)     15  -0.000090(    54)     0
 -----------------------------------------------------------------------------------------------
 Internal  Forces:  Max     0.016446380 RMS     0.005143973

 GradGradGradGradGradGradGradGradGradGradGradGradGradGradGradGradGradGrad
 Berny optimization.
 Search for a local minimum.
 Step number   4 out of a maximum of  100
 All quantities printed in internal units (Hartrees-Bohrs-Radians)
 Update second derivatives using D2CorN and points    4
 The second derivative matrix:
                          rAH       dih
           rAH          0.01368
           dih          0.00523   0.00195
 ITU=  0  0  1
     Eigenvalues ---   -0.00004   0.01567
 RFO step:  Lambda=-1.65404423D-04 EMin=-3.88816437D-05
 Quartic linear search produced a step of -0.01502.
 Maximum step size (   0.505) exceeded in Quadratic search.
    -- Step size scaled by   0.443
 Variable       Old X    -DE/DX   Delta X   Delta X   Delta X     New X
                                 (Linear)    (Quad)   (Total)
   rAH        5.36735  -0.00011  -0.01360   0.17554   0.16194   5.52929
   dih       -0.77968  -0.00020   0.00668  -0.47302  -0.46634  -1.24602
         Item               Value     Threshold  Converged?
 Maximum Force            0.000197     0.000450     YES
 RMS     Force            0.000159     0.000300     YES
 Maximum Displacement     0.466336     0.001800     NO 
 RMS     Displacement     0.349065     0.001200     NO 
 Predicted change in Energy=-7.713047D-05
 GradGradGradGradGradGradGradGradGradGradGradGradGradGradGradGradGradGrad

 ---------------------------------------------------------------------------------------------------
                            Z-MATRIX (ANGSTROMS AND DEGREES)
   CD    Cent   Atom    N1       Length/X        N2       Alpha/Y        N3        Beta/Z          J
 ---------------------------------------------------------------------------------------------------
      1      1  N        0   0.844000          0.456000          0.923000
      2      2  H        0   1.372000          0.495000          1.798000
      3      3  C        0   1.643000          1.125000         -0.113000
      4      4  H        0   2.000000          2.097000          0.243000
      5      5  H        0   0.987000          1.307000         -0.971000
      6      6  C        0   2.779000          0.153000         -0.504000
      7      7  H        0   3.689000          0.384000          0.059000
      8      8  H        0   3.031000          0.222000         -1.566000
      9      9  C        0   2.231000         -1.240000         -0.112000
     10     10  H        0   2.866000         -1.707000          0.647000
     11     11  H        0   2.185000         -1.928000         -0.962000
     12     12  C        0   0.830000         -0.941000          0.469000
     13     13  H        0   0.542000         -1.609000          1.286000
     14     14  H        0   0.068000         -1.027000         -0.314000
     15         X       13   1.000000(    14)     12   90.000(    30)     14  -71.392(    45)      0
     16     15  O       13   2.925975(    15)     15   90.000(    31)     12  180.000(    46)      0
     17     16  H       16   0.957200(    16)     13  127.740(    32)     15    0.000(    47)      0
     18     17  H       16   0.957200(    17)     13  127.740(    33)     15  180.000(    48)      0
 ---------------------------------------------------------------------------------------------------
                         Z-Matrix orientation:                         
 ---------------------------------------------------------------------
 Center     Atomic      Atomic             Coordinates (Angstroms)
 Number     Number       Type             X           Y           Z
 ---------------------------------------------------------------------
      1          7           0        0.844000    0.456000    0.923000
      2          1           0        1.372000    0.495000    1.798000
      3          6           0        1.643000    1.125000   -0.113000
      4          1           0        2.000000    2.097000    0.243000
      5          1           0        0.987000    1.307000   -0.971000
      6          6           0        2.779000    0.153000   -0.504000
      7          1           0        3.689000    0.384000    0.059000
      8          1           0        3.031000    0.222000   -1.566000
      9          6           0        2.231000   -1.240000   -0.112000
     10          1           0        2.866000   -1.707000    0.647000
     11          1           0        2.185000   -1.928000   -0.962000
     12          6           0        0.830000   -0.941000    0.469000
     13          1           0        0.542000   -1.609000    1.286000
     14          1           0        0.068000   -1.027000   -0.314000
     15         -1           0       -0.209531   -0.993771    1.524105
     16          8           0       -0.228332   -3.395743    3.471283
[...]
 Quartic linear search produced a step of -0.06021.
 Variable       Old X    -DE/DX   Delta X   Delta X   Delta X     New X
                                 (Linear)    (Quad)   (Total)
   rAH        5.24849  -0.00000  -0.00127  -0.00001  -0.00128   5.24721
   dih       -1.32125   0.00000  -0.00006   0.00038   0.00032  -1.32093
         Item               Value     Threshold  Converged?
 Maximum Force            0.000002     0.000450     YES
 RMS     Force            0.000001     0.000300     YES
 Maximum Displacement     0.001280     0.001800     YES
 RMS     Displacement     0.000933     0.001200     YES
 Predicted change in Energy=-1.021546D-09
 Optimization completed.
    -- Stationary point found.
                       ----------------------------
                       !   Optimized Parameters   !
                       ! (Angstroms and Degrees)  !
 ----------------------                            ----------------------
 !      Name          Value   Derivative information (Atomic Units)     !
 ------------------------------------------------------------------------
 !       rAH         2.7774   -DE/DX =    0.0                           !
 !       dih       -75.7022   -DE/DX =    0.0                           !
 ------------------------------------------------------------------------
 GradGradGradGradGradGradGradGradGradGradGradGradGradGradGradGradGradGrad

 ---------------------------------------------------------------------------------------------------
                            Z-MATRIX (ANGSTROMS AND DEGREES)
   CD    Cent   Atom    N1       Length/X        N2       Alpha/Y        N3        Beta/Z          J
 ---------------------------------------------------------------------------------------------------
      1      1  N        0   0.844000          0.456000          0.923000
      2      2  H        0   1.372000          0.495000          1.798000
      3      3  C        0   1.643000          1.125000         -0.113000
      4      4  H        0   2.000000          2.097000          0.243000
      5      5  H        0   0.987000          1.307000         -0.971000
      6      6  C        0   2.779000          0.153000         -0.504000
      7      7  H        0   3.689000          0.384000          0.059000
      8      8  H        0   3.031000          0.222000         -1.566000
      9      9  C        0   2.231000         -1.240000         -0.112000
     10     10  H        0   2.866000         -1.707000          0.647000
     11     11  H        0   2.185000         -1.928000         -0.962000
     12     12  C        0   0.830000         -0.941000          0.469000
     13     13  H        0   0.542000         -1.609000          1.286000
     14     14  H        0   0.068000         -1.027000         -0.314000
     15         X       13   1.000000(    14)     12   90.000(    30)     14  -75.702(    45)      0
     16     15  O       13   2.777384(    15)     15   90.000(    31)     12  180.000(    46)      0
     17     16  H       16   0.957200(    16)     13  127.740(    32)     15    0.000(    47)      0
     18     17  H       16   0.957200(    17)     13  127.740(    33)     15  180.000(    48)      0
 ---------------------------------------------------------------------------------------------------
                         Z-Matrix orientation:                         
 ---------------------------------------------------------------------
 Center     Atomic      Atomic             Coordinates (Angstroms)
 Number     Number       Type             X           Y           Z
 ---------------------------------------------------------------------
      1          7           0        0.844000    0.456000    0.923000
      2          1           0        1.372000    0.495000    1.798000
      3          6           0        1.643000    1.125000   -0.113000
      4          1           0        2.000000    2.097000    0.243000
      5          1           0        0.987000    1.307000   -0.971000
      6          6           0        2.779000    0.153000   -0.504000
      7          1           0        3.689000    0.384000    0.059000
      8          1           0        3.031000    0.222000   -1.566000
      9          6           0        2.231000   -1.240000   -0.112000
     10          1           0        2.866000   -1.707000    0.647000
     11          1           0        2.185000   -1.928000   -0.962000
     12          6           0        0.830000   -0.941000    0.469000
     13          1           0        0.542000   -1.609000    1.286000
     14          1           0        0.068000   -1.027000   -0.314000
     15         -1           0       -0.161941   -0.958036    1.570099
     16          8           0       -0.189212   -3.305006    3.360307
     17          1           0       -0.876308   -3.170027    4.012926
     18          1           0        0.189389   -4.155522    3.582828
 ---------------------------------------------------------------------
                    Distance matrix (angstroms):
                    1          2          3          4          5
     1  N    0.000000
     2  H    1.022707   0.000000
     3  C    1.469441   2.030335   0.000000
     4  H    2.119343   2.319227   1.094974   0.000000
     5  H    2.081318   2.911173   1.095274   1.767502   0.000000
     6  C    2.423296   2.719525   1.545368   2.223508   2.181987
     7  H    2.974173   2.899126   2.182838   2.412664   3.035397
     8  H    3.321573   3.760759   2.202989   2.801975   2.389390
     9  C    2.423099   2.719597   2.437000   3.363771   2.961862
    10  H    2.973757   2.899248   3.177035   3.922192   3.902917
    11  H    3.321891   3.761582   3.214868   4.205577   3.449712
    12  C    1.468986   2.030296   2.295223   3.263345   2.674276
    13  H    2.118301   2.319021   3.262539   4.116801   3.714180
    14  H    2.081258   2.911605   2.674347   3.715138   2.593023
    15  X    1.852067   2.125141   3.229500   3.970947   3.592720
    16  O    4.599257   4.395252   5.919951   6.609987   6.435394
    17  H    5.065094   4.836653   6.466640   7.087106   6.953791
    18  H    5.363706   5.119721   6.607272   7.316201   7.156304
                    6          7          8          9         10
     6  C    0.000000
     7  H    1.094728   0.000000
     8  H    1.093668   1.760634   0.000000
     9  C    1.547390   2.189151   2.211687   0.000000
    10  H    2.189057   2.322790   2.940346   1.094255   0.000000
    11  H    2.212049   2.941054   2.388102   1.094514   1.761103
    12  C    2.437656   3.177673   3.215306   1.545886   2.182598
    13  H    3.363467   3.921886   4.204948   2.223350   2.412240
    14  H    2.962773   3.904061   3.450634   2.182829   3.035577
    15  X    3.766354   4.349049   4.628442   2.938559   3.252920
    16  O    5.975028   6.288714   6.861344   4.709416   4.387480
    17  H    6.693759   7.007616   7.609029   5.513201   5.241639
    18  H    6.478551   6.728440   7.331295   5.130322   4.666754
                   11         12         13         14         15
    11  H    0.000000
    12  C    2.204077   0.000000
    13  H    2.802626   1.093918   0.000000
    14  H    2.390271   1.095960   1.767314   0.000000
    15  X    3.586153   1.482112   1.000000   1.899331   0.000000
    16  O    5.120095   3.871302   2.777384   4.330820   2.951925
    17  H    5.971945   4.521002   3.447395   4.920018   3.372037
    18  H    5.440568   4.521002   3.447395   4.998766   3.794527
                   16         17         18
    16  O    0.000000
    17  H    0.957200   0.000000
    18  H    0.957200   1.513901   0.000000
 Stoichiometry    C4H11NO
 Framework group  C1[X(C4H11NO)]
 Deg. of freedom    45
 Full point group                 C1      NOp   1
 Largest Abelian subgroup         C1      NOp   1
 Largest concise Abelian subgroup C1      NOp   1
                         Standard orientation:                         
 ---------------------------------------------------------------------
 Center     Atomic      Atomic             Coordinates (Angstroms)
 Number     Number       Type             X           Y           Z
 ---------------------------------------------------------------------
      1          7           0        0.529569   -1.190069   -0.040374
      2          1           0        0.219629   -1.225588   -1.014338
      3          6           0        1.950097   -0.814125   -0.035338
      4          1           0        2.514166   -1.428601   -0.744714
      5          1           0        2.343268   -1.019079    0.966178
      6          6           0        2.016821    0.699957   -0.337438
      7          1           0        2.186063    0.868408   -1.405807
      8          1           0        2.833966    1.190083    0.199366
      9          6           0        0.625469    1.227791    0.086765
     10          1           0        0.097636    1.660639   -0.768472
     11          1           0        0.687075    2.005017    0.854935
     12          6           0       -0.113944   -0.031648    0.593561
     13          1           0       -1.187546   -0.024411    0.383837
     14          1           0        0.011574   -0.135238    1.677370
     15          8           0       -3.913347   -0.006035   -0.148638
     16          1           0       -4.515227   -0.750329   -0.149189
     17          1           0       -4.461470    0.746011   -0.372737
 ---------------------------------------------------------------------
 Rotational constants (GHZ):           6.1910714           1.1734851           1.0483766

 **********************************************************************

            Population analysis using the SCF density.

 **********************************************************************

 Orbital symmetries:
       Occupied  (A) (A) (A) (A) (A) (A) (A) (A) (A) (A) (A) (A)
                 (A) (A) (A) (A) (A) (A) (A) (A) (A) (A) (A) (A)
                 (A)
       Virtual   (A) (A) (A) (A) (A) (A) (A) (A) (A) (A) (A) (A)
                 (A) (A) (A) (A) (A) (A) (A) (A) (A) (A) (A) (A)
                 (A) (A) (A) (A) (A) (A) (A) (A) (A) (A) (A) (A)
                 (A) (A) (A) (A) (A) (A) (A) (A) (A) (A) (A) (A)
                 (A) (A) (A) (A) (A) (A) (A) (A) (A) (A) (A) (A)
                 (A) (A) (A) (A) (A) (A) (A) (A) (A) (A) (A) (A)
                 (A) (A) (A) (A) (A) (A) (A) (A) (A) (A) (A) (A)
                 (A) (A) (A)
 The electronic state is 1-A.
 Alpha  occ. eigenvalues --  -20.56658 -15.52960 -11.23316 -11.22590 -11.20971
 Alpha  occ. eigenvalues --  -11.20762  -1.34745  -1.20527  -1.00921  -0.95750
 Alpha  occ. eigenvalues --   -0.80288  -0.77297  -0.71252  -0.66329  -0.62694
 Alpha  occ. eigenvalues --   -0.57959  -0.57841  -0.57174  -0.50381  -0.49382
 Alpha  occ. eigenvalues --   -0.48223  -0.46873  -0.46397  -0.44725  -0.36202
 Alpha virt. eigenvalues --    0.20119   0.22701   0.25676   0.29608   0.30046
 Alpha virt. eigenvalues --    0.30139   0.31370   0.34043   0.34905   0.36573
 Alpha virt. eigenvalues --    0.37427   0.38842   0.42056   0.42660   0.49642
 Alpha virt. eigenvalues --    0.53515   0.73775   0.77273   0.77819   0.80755
 Alpha virt. eigenvalues --    0.81357   0.84956   0.91493   0.93068   0.93660
 Alpha virt. eigenvalues --    0.96022   1.01729   1.02895   1.03359   1.06673
 Alpha virt. eigenvalues --    1.10637   1.13112   1.13944   1.15330   1.16144
 Alpha virt. eigenvalues --    1.16309   1.16510   1.20364   1.20590   1.21881
 Alpha virt. eigenvalues --    1.23900   1.24818   1.25086   1.37545   1.41209
 Alpha virt. eigenvalues --    1.44036   1.50932   1.53784   1.60257   1.61070
 Alpha virt. eigenvalues --    1.70813   1.92157   2.01691   2.02797   2.05056
 Alpha virt. eigenvalues --    2.06158   2.09741   2.13522   2.14633   2.20961
 Alpha virt. eigenvalues --    2.23557   2.30130   2.32831   2.36180   2.43422
 Alpha virt. eigenvalues --    2.44447   2.44500   2.52142   2.58441   2.60338
 Alpha virt. eigenvalues --    2.62106   2.72499   2.74810   2.82867   2.91043
 Alpha virt. eigenvalues --    2.94139   2.96753   2.99007   3.00013   3.03904
 Alpha virt. eigenvalues --    3.25240   4.00299   4.36097   4.61940   4.69638
 Alpha virt. eigenvalues --    4.88497   5.05760
          Condensed to atoms (all electrons):
               1          2          3          4          5          6
     1  N    7.062121   0.327753   0.295199  -0.033598  -0.047715  -0.085712
     2  H    0.327753   0.433978  -0.042769  -0.005429   0.005740  -0.000698
     3  C    0.295199  -0.042769   4.977065   0.403293   0.405548   0.334677
     4  H   -0.033598  -0.005429   0.403293   0.527577  -0.026974  -0.035826
     5  H   -0.047715   0.005740   0.405548  -0.026974   0.549707  -0.054136
     6  C   -0.085712  -0.000698   0.334677  -0.035826  -0.054136   5.207408
     7  H    0.002679   0.000964  -0.038457  -0.004271   0.003885   0.395348
     8  H    0.004423  -0.000026  -0.032565   0.001378  -0.002513   0.390613
     9  C   -0.084567  -0.000711  -0.062142   0.003859  -0.000392   0.321570
    10  H    0.002622   0.000958   0.003248  -0.000164  -0.000014  -0.038771
    11  H    0.004432  -0.000027   0.003062  -0.000065   0.000173  -0.034038
    12  C    0.289518  -0.042706  -0.095535   0.006154  -0.001797  -0.061079
    13  H   -0.030380  -0.004850   0.005525  -0.000096  -0.000161   0.003394
    14  H   -0.048441   0.005730  -0.002121  -0.000177   0.003493  -0.000251
    15  O    0.000009   0.000009  -0.000000  -0.000000   0.000000  -0.000000
    16  H   -0.000001  -0.000001   0.000000  -0.000000  -0.000000   0.000000
    17  H   -0.000000  -0.000000   0.000000  -0.000000  -0.000000   0.000000
               7          8          9         10         11         12
     1  N    0.002679   0.004423  -0.084567   0.002622   0.004432   0.289518
     2  H    0.000964  -0.000026  -0.000711   0.000958  -0.000027  -0.042706
     3  C   -0.038457  -0.032565  -0.062142   0.003248   0.003062  -0.095535
     4  H   -0.004271   0.001378   0.003859  -0.000164  -0.000065   0.006154
     5  H    0.003885  -0.002513  -0.000392  -0.000014   0.000173  -0.001797
     6  C    0.395348   0.390613   0.321570  -0.038771  -0.034038  -0.061079
     7  H    0.547621  -0.026418  -0.038446  -0.006359   0.002659   0.003234
     8  H   -0.026418   0.532866  -0.033401   0.002649  -0.003736   0.003007
     9  C   -0.038446  -0.033401   5.205159   0.395880   0.390957   0.331538
    10  H   -0.006359   0.002649   0.395880   0.544370  -0.026309  -0.038169
    11  H    0.002659  -0.003736   0.390957  -0.026309   0.533644  -0.032095
    12  C    0.003234   0.003007   0.331538  -0.038169  -0.032095   5.013010
    13  H   -0.000147  -0.000055  -0.032086  -0.003631   0.001122   0.400889
    14  H   -0.000015   0.000160  -0.055380   0.003866  -0.002547   0.404681
    15  O    0.000000   0.000000   0.000018   0.000004   0.000000  -0.001830
    16  H   -0.000000  -0.000000  -0.000001  -0.000000   0.000000   0.000080
    17  H   -0.000000  -0.000000  -0.000003   0.000000   0.000000   0.000080
              13         14         15         16         17
     1  N   -0.030380  -0.048441   0.000009  -0.000001  -0.000000
     2  H   -0.004850   0.005730   0.000009  -0.000001  -0.000000
     3  C    0.005525  -0.002121  -0.000000   0.000000   0.000000
     4  H   -0.000096  -0.000177  -0.000000  -0.000000  -0.000000
     5  H   -0.000161   0.003493   0.000000  -0.000000  -0.000000
     6  C    0.003394  -0.000251  -0.000000   0.000000   0.000000
     7  H   -0.000147  -0.000015   0.000000  -0.000000  -0.000000
     8  H   -0.000055   0.000160   0.000000  -0.000000  -0.000000
     9  C   -0.032086  -0.055380   0.000018  -0.000001  -0.000003
    10  H   -0.003631   0.003866   0.000004  -0.000000   0.000000
    11  H    0.001122  -0.002547   0.000000   0.000000   0.000000
    12  C    0.400889   0.404681  -0.001830   0.000080   0.000080
    13  H    0.464295  -0.023438   0.007447  -0.000225  -0.000227
    14  H   -0.023438   0.553851   0.000007  -0.000001  -0.000001
    15  O    0.007447   0.000007   8.329815   0.265057   0.264521
    16  H   -0.000225  -0.000001   0.265057   0.316205  -0.018217
    17  H   -0.000227  -0.000001   0.264521  -0.018217   0.318906
 Mulliken charges:
               1
     1  N   -0.658342
     2  H    0.322084
     3  C   -0.154028
     4  H    0.164339
     5  H    0.165156
     6  C   -0.342499
     7  H    0.157722
     8  H    0.163619
     9  C   -0.341852
    10  H    0.159821
    11  H    0.162767
    12  C   -0.178981
    13  H    0.212624
    14  H    0.160583
    15  O   -0.865055
    16  H    0.437103
    17  H    0.434940
 Sum of Mulliken charges =  -0.00000
 Mulliken charges with hydrogens summed into heavy atoms:
               1
     1  N   -0.336258
     3  C    0.175467
     6  C   -0.021158
     9  C   -0.019265
    12  C    0.194226
    15  O    0.006987
 Electronic spatial extent (au):  <R**2>=           1121.3779
 Charge=             -0.0000 electrons
 Dipole moment (field-independent basis, Debye):
    X=             -2.3177    Y=              1.3085    Z=             -1.2163  Tot=              2.9263
 Quadrupole moment (field-independent basis, Debye-Ang):
   XX=            -19.2778   YY=            -41.1344   ZZ=            -37.9293
   XY=             -0.0227   XZ=              2.4499   YZ=              1.4354
 Traceless Quadrupole moment (field-independent basis, Debye-Ang):
   XX=             13.5027   YY=             -8.3539   ZZ=             -5.1488
   XY=             -0.0227   XZ=              2.4499   YZ=              1.4354
 Octapole moment (field-independent basis, Debye-Ang**2):
  XXX=           -136.9618  YYY=              5.2599  ZZZ=             -2.5193  XYY=            -18.9580
  XXY=             -3.3102  XXZ=            -11.8978  XZZ=             -4.6177  YZZ=             -1.6198
  YYZ=             -3.4591  XYZ=              3.2134
 Hexadecapole moment (field-independent basis, Debye-Ang**3):
 XXXX=           -401.3743 YYYY=           -250.2224 ZZZZ=            -88.1207 XXXY=              1.6768
 XXXZ=             65.9543 YYYX=              0.2044 YYYZ=              6.9284 ZZZX=              3.7571
 ZZZY=              1.9434 XXYY=           -165.3496 XXZZ=           -192.7927 YYZZ=            -51.1172
 XXYZ=             -5.5060 YYXZ=              4.0530 ZZXY=             -2.4399
 N-N= 2.416771245442D+02 E-N=-1.156266535393D+03  KE= 2.866462727037D+02
 1\1\GINC-C402-092\FOpt\RHF\6-31G(d)\C4H11N1O1\TG455515\31-Mar-2021\1\\
 # HF/6-31G* Opt=(Z-matrix,MaxCycles=100) Geom=PrintInputOrient\\<qmtoo
 l> simtype="Geometry optimization" </qmtool> PRLD-DON-H51\\0,1\N,0,0.8
 439999819,0.4560000002,0.9229999781\H,0,1.371999979,0.4950000048,1.797
 9999781\C,0,1.6430000067,1.125,-0.112999998\H,0,2.,2.0969998837,0.2430
 000007\H,0,0.9869999886,1.307000041,-0.9710000157\C,0,2.7790000439,0.1
 529999971,-0.5040000081\H,0,3.6889998913,0.3840000033,0.0590000004\H,0
 ,3.0309998989,0.2220000029,-1.5659999847\C,0,2.2309999466,-1.240000009
 5,-0.1120000035\H,0,2.8659999371,-1.7070000172,0.6470000148\H,0,2.1849
 999428,-1.9279999733,-0.9620000124\C,0,0.8299999833,-0.9409999847,0.46
 90000117\H,0,0.5419999957,-1.6089999676,1.2860000134\H,0,0.0680000037,
 -1.0269999504,-0.3140000105\X,13,1.,12,90.,14,dih,0\O,13,rAH,15,90.,12
 ,180.,0\H,16,0.9572,13,127.74,15,0.,0\H,16,0.9572,13,127.74,15,180.,0\
 \rAH=2.77738357\dih=-75.70216578\\Version=ES64L-G16RevA.03\State=1-A\H
 F=-287.1551694\RMSD=4.340e-09\RMSF=5.684e-03\Dipole=0.2658611,-0.86410
 7,0.7128426\Quadrupole=-4.2807542,0.8317188,3.4490355,4.1357768,-2.907
 3315,-6.359891\PG=C01 [X(C4H11N1O1)]\\@


 THE ATTENTION SPAN OF A COMPUTER IS AS LONG
 AS ITS EXTENSION CORD.
 Job cpu time:       0 days  0 hours  2 minutes 59.7 seconds.
 Elapsed time:       0 days  0 hours  2 minutes 56.6 seconds.
 File lengths (MBytes):  RWF=     10 Int=      0 D2E=      0 Chk=      2 Scr=      1
 Normal termination of Gaussian 16 at Wed Mar 31 17:10:23 2021.
