 Entering Gaussian System, Link 0=g16
 Initial command:
 /home1/apps/gaussian/16rA.03/g16/l1.exe "/tmp/Gau-55380.inp" -scrdir="/tmp/"
 Entering Link 1 = /home1/apps/gaussian/16rA.03/g16/l1.exe PID=     55381.
  
 Copyright (c) 1988,1990,1992,1993,1995,1998,2003,2009,2016,
            Gaussian, Inc.  All Rights Reserved.
  
 This is part of the Gaussian(R) 16 program.  It is based on
 the Gaussian(R) 09 system (copyright 2009, Gaussian, Inc.),
 the Gaussian(R) 03 system (copyright 2003, Gaussian, Inc.),
 the Gaussian(R) 98 system (copyright 1998, Gaussian, Inc.),
 the Gaussian(R) 94 system (copyright 1995, Gaussian, Inc.),
 the Gaussian 92(TM) system (copyright 1992, Gaussian, Inc.),
 the Gaussian 90(TM) system (copyright 1990, Gaussian, Inc.),
 the Gaussian 88(TM) system (copyright 1988, Gaussian, Inc.),
 the Gaussian 86(TM) system (copyright 1986, Carnegie Mellon
 University), and the Gaussian 82(TM) system (copyright 1983,
 Carnegie Mellon University). Gaussian is a federally registered
 trademark of Gaussian, Inc.
  
 This software contains proprietary and confidential information,
 including trade secrets, belonging to Gaussian, Inc.
  
 This software is provided under written license and may be
 used, copied, transmitted, or stored only in accord with that
 written license.
  
 The following legend is applicable only to US Government
 contracts under FAR:
  
                    RESTRICTED RIGHTS LEGEND
  
 Use, reproduction and disclosure by the US Government is
 subject to restrictions as set forth in subparagraphs (a)
 and (c) of the Commercial Computer Software - Restricted
 Rights clause in FAR 52.227-19.
  
 Gaussian, Inc.
 340 Quinnipiac St., Bldg. 40, Wallingford CT 06492
  
  
 ---------------------------------------------------------------
 Warning -- This program may not be used in any manner that
 competes with the business of Gaussian, Inc. or will provide
 assistance to any competitor of Gaussian, Inc.  The licensee
 of this program is prohibited from giving any competitor of
 Gaussian, Inc. access to this program.  By using this program,
 the user acknowledges that Gaussian, Inc. is engaged in the
 business of creating and licensing software in the field of
 computational chemistry and represents and warrants to the
 licensee that it is not a competitor of Gaussian, Inc. and that
 it will not use this program in any manner prohibited above.
 ---------------------------------------------------------------
  

 Cite this work as:
 Gaussian 16, Revision A.03,
 M. J. Frisch, G. W. Trucks, H. B. Schlegel, G. E. Scuseria, 
 M. A. Robb, J. R. Cheeseman, G. Scalmani, V. Barone, 
 G. A. Petersson, H. Nakatsuji, X. Li, M. Caricato, A. V. Marenich, 
 J. Bloino, B. G. Janesko, R. Gomperts, B. Mennucci, H. P. Hratchian, 
 J. V. Ortiz, A. F. Izmaylov, J. L. Sonnenberg, D. Williams-Young, 
 F. Ding, F. Lipparini, F. Egidi, J. Goings, B. Peng, A. Petrone, 
 T. Henderson, D. Ranasinghe, V. G. Zakrzewski, J. Gao, N. Rega, 
 G. Zheng, W. Liang, M. Hada, M. Ehara, K. Toyota, R. Fukuda, 
 J. Hasegawa, M. Ishida, T. Nakajima, Y. Honda, O. Kitao, H. Nakai, 
 T. Vreven, K. Throssell, J. A. Montgomery, Jr., J. E. Peralta, 
 F. Ogliaro, M. J. Bearpark, J. J. Heyd, E. N. Brothers, K. N. Kudin, 
 V. N. Staroverov, T. A. Keith, R. Kobayashi, J. Normand, 
 K. Raghavachari, A. P. Rendell, J. C. Burant, S. S. Iyengar, 
 J. Tomasi, M. Cossi, J. M. Millam, M. Klene, C. Adamo, R. Cammi, 
 J. W. Ochterski, R. L. Martin, K. Morokuma, O. Farkas, 
 J. B. Foresman, and D. J. Fox, Gaussian, Inc., Wallingford CT, 2016.
 
 ******************************************
 Gaussian 16:  ES64L-G16RevA.03 25-Dec-2016
                31-Mar-2021 
 ******************************************
 %chk=PRLD-DON-H41.chk
 %nproc=1
 Will use up to    1 processors via shared memory.
 %mem=1GB
 --------------------------------------------------------------
 # HF/6-31G* Opt=(Z-matrix,MaxCycles=100) Geom=PrintInputOrient
 --------------------------------------------------------------
 1/6=100,10=7,18=40,38=1/1,3;
 2/9=2000,12=2,17=6,18=5,29=3,40=1/2;
 3/5=1,6=6,7=1,11=9,25=1,30=1,71=1/1,2,3;
 4//1;
 5/5=2,38=5/2;
 6/7=2,8=2,9=2,10=2,28=1/1;
 7/29=1/1,2,3,16;
 1/6=100,10=7,18=40/3(2);
 2/9=2000,29=3/2;
 99//99;
 2/9=2000,29=3/2;
 3/5=1,6=6,7=1,11=9,25=1,30=1,71=1/1,2,3;
 4/5=5,16=3,69=1/1;
 5/5=2,38=5/2;
 7//1,2,3,16;
 1/6=100,18=40/3(-5);
 2/9=2000,29=3/2;
 6/7=2,8=2,9=2,10=2,19=2,28=1/1;
 99/9=1/99;
 ---------------------------------------------------------------
 <qmtool> simtype="Geometry optimization" </qmtool> PRLD-DON-H41
 ---------------------------------------------------------------
 Symbolic Z-matrix:
 Charge =  0 Multiplicity = 1
 N1                    0.844     0.456     0.923 
 H2                    1.372     0.495     1.798 
 C3                    1.643     1.125    -0.113 
 H4                    2.        2.097     0.243 
 H5                    0.987     1.307    -0.971 
 C6                    2.779     0.153    -0.504 
 H7                    3.689     0.384     0.059 
 H8                    3.031     0.222    -1.566 
 C9                    2.231    -1.24     -0.112 
 H10                   2.866    -1.707     0.647 
 H11                   2.185    -1.928    -0.962 
 C12                   0.83     -0.941     0.469 
 H13                   0.542    -1.609     1.286 
 H14                   0.068    -1.027    -0.314 
 x                    H10   1.       C9    90.      C12  dih      0
 Ow                   H10  rAH      x     90.      C9    180.     0
 H1w                  Ow    0.9572   H10   127.74   x     0.       0
 H2w                  Ow    0.9572   H10   127.74   x     180.     0
       Variables:
  rAH                   2.                       
  dih                   0.                       
 

 GradGradGradGradGradGradGradGradGradGradGradGradGradGradGradGradGradGrad
 Berny optimization.
 Initialization pass.
                       ----------------------------
                       !    Initial Parameters    !
                       ! (Angstroms and Degrees)  !
 ----------------------                            ----------------------
 !      Name          Value   Derivative information (Atomic Units)     !
 ------------------------------------------------------------------------
 !       rAH         2.0      estimate D2E/DX2                          !
 !       dih         0.0      estimate D2E/DX2                          !
 ------------------------------------------------------------------------
 Trust Radius=3.00D-01 FncErr=1.00D-07 GrdErr=1.00D-07 EigMax=2.50D+02 EigMin=1.00D-04
 Number of steps in this run=    100 maximum allowed number of steps=    100.
 GradGradGradGradGradGradGradGradGradGradGradGradGradGradGradGradGradGrad

 ---------------------------------------------------------------------------------------------------
                            Z-MATRIX (ANGSTROMS AND DEGREES)
   CD    Cent   Atom    N1       Length/X        N2       Alpha/Y        N3        Beta/Z          J
 ---------------------------------------------------------------------------------------------------
      1      1  N        0   0.844000          0.456000          0.923000
      2      2  H        0   1.372000          0.495000          1.798000
      3      3  C        0   1.643000          1.125000         -0.113000
      4      4  H        0   2.000000          2.097000          0.243000
      5      5  H        0   0.987000          1.307000         -0.971000
      6      6  C        0   2.779000          0.153000         -0.504000
      7      7  H        0   3.689000          0.384000          0.059000
      8      8  H        0   3.031000          0.222000         -1.566000
      9      9  C        0   2.231000         -1.240000         -0.112000
     10     10  H        0   2.866000         -1.707000          0.647000
     11     11  H        0   2.185000         -1.928000         -0.962000
     12     12  C        0   0.830000         -0.941000          0.469000
     13     13  H        0   0.542000         -1.609000          1.286000
     14     14  H        0   0.068000         -1.027000         -0.314000
     15         X       10   1.000000(    14)      9   90.000(    30)     12    0.000(    45)      0
     16     15  O       10   2.000000(    15)     15   90.000(    31)      9  180.000(    46)      0
     17     16  H       16   0.957200(    16)     10  127.740(    32)     15    0.000(    47)      0
     18     17  H       16   0.957200(    17)     10  127.740(    33)     15  180.000(    48)      0
 ---------------------------------------------------------------------------------------------------
                         Z-Matrix orientation:                         
 ---------------------------------------------------------------------
 Center     Atomic      Atomic             Coordinates (Angstroms)
 Number     Number       Type             X           Y           Z
 ---------------------------------------------------------------------
      1          7           0        0.844000    0.456000    0.923000
      2          1           0        1.372000    0.495000    1.798000
      3          6           0        1.643000    1.125000   -0.113000
      4          1           0        2.000000    2.097000    0.243000
      5          1           0        0.987000    1.307000   -0.971000
      6          6           0        2.779000    0.153000   -0.504000
      7          1           0        3.689000    0.384000    0.059000
      8          1           0        3.031000    0.222000   -1.566000
      9          6           0        2.231000   -1.240000   -0.112000
     10          1           0        2.866000   -1.707000    0.647000
     11          1           0        2.185000   -1.928000   -0.962000
     12          6           0        0.830000   -0.941000    0.469000
     13          1           0        0.542000   -1.609000    1.286000
     14          1           0        0.068000   -1.027000   -0.314000
     15         -1           0        2.114636   -1.659008    1.305140
     16          8           0        4.026606   -2.560548    2.034245
     17          1           0        3.797851   -2.774260    2.938805
     18          1           0        4.935341   -2.846916    1.942446
 ---------------------------------------------------------------------
                    Distance matrix (angstroms):
                    1          2          3          4          5
     1  N    0.000000
     2  H    1.022707   0.000000
     3  C    1.469441   2.030335   0.000000
     4  H    2.119343   2.319227   1.094974   0.000000
     5  H    2.081318   2.911173   1.095274   1.767502   0.000000
     6  C    2.423296   2.719525   1.545368   2.223508   2.181987
     7  H    2.974173   2.899126   2.182838   2.412664   3.035397
     8  H    3.321573   3.760759   2.202989   2.801975   2.389390
     9  C    2.423099   2.719597   2.437000   3.363771   2.961862
    10  H    2.973757   2.899248   3.177035   3.922192   3.902917
    11  H    3.321891   3.761582   3.214868   4.205577   3.449712
    12  C    1.468986   2.030296   2.295223   3.263345   2.674276
    13  H    2.118301   2.319021   3.262539   4.116801   3.714180
    14  H    2.081258   2.911605   2.674347   3.715138   2.593023
    15  X    2.496759   2.331130   3.159788   3.904981   3.905071
    16  O    4.523650   4.054519   4.886257   5.385949   5.764428
    17  H    4.819054   4.227795   5.400104   5.850539   6.312222
    18  H    5.356080   4.887399   5.553421   5.995552   6.429042
                    6          7          8          9         10
     6  C    0.000000
     7  H    1.094728   0.000000
     8  H    1.093668   1.760634   0.000000
     9  C    1.547390   2.189151   2.211687   0.000000
    10  H    2.189057   2.322790   2.940346   1.094255   0.000000
    11  H    2.212049   2.941054   2.388102   1.094514   1.761103
    12  C    2.437656   3.177673   3.215306   1.545886   2.182598
    13  H    3.363467   3.921886   4.204948   2.223350   2.412240
    14  H    2.962773   3.904061   3.450634   2.182829   3.035577
    15  X    2.645324   2.864501   3.552655   1.482361   1.000000
    16  O    3.919509   3.561732   4.657850   3.094255   2.000000
    17  H    4.632474   4.275481   5.464330   3.757178   2.694394
    18  H    4.431072   3.942024   5.035271   3.757178   2.694394
                   11         12         13         14         15
    11  H    0.000000
    12  C    2.204077   0.000000
    13  H    2.802626   1.093918   0.000000
    14  H    2.390271   1.095960   1.767314   0.000000
    15  X    2.284126   1.692618   1.573547   2.685101   0.000000
    16  O    3.573390   3.910399   3.688875   4.851452   2.236068
    17  H    4.305081   4.274215   3.832774   5.248375   2.597279
    18  H    4.104216   4.759977   4.611378   5.665214   3.126286
                   16         17         18
    16  O    0.000000
    17  H    0.957200   0.000000
    18  H    0.957200   1.513901   0.000000
 Stoichiometry    C4H11NO
 Framework group  C1[X(C4H11NO)]
 Deg. of freedom    45
 Full point group                 C1      NOp   1
 Largest Abelian subgroup         C1      NOp   1
 Largest concise Abelian subgroup C1      NOp   1
                         Standard orientation:                         
 ---------------------------------------------------------------------
 Center     Atomic      Atomic             Coordinates (Angstroms)
 Number     Number       Type             X           Y           Z
 ---------------------------------------------------------------------
      1          7           0        1.347667   -0.890467   -0.652660
      2          1           0        0.710987   -0.918543   -1.452523
      3          6           0        1.785787    0.501095   -0.476974
      4          1           0        2.119997    0.923470   -1.430321
      5          1           0        2.645302    0.494390    0.201858
      6          6           0        0.605557    1.268226    0.160779
      7          1           0        0.012656    1.766947   -0.612638
      8          1           0        0.945911    2.041964    0.854752
      9          6           0       -0.223566    0.164771    0.860321
     10          1           0       -1.231511    0.110475    0.437838
     11          1           0       -0.333247    0.339233    1.935260
     12          6           0        0.555979   -1.135984    0.560135
     13          1           0       -0.085839   -2.012326    0.430710
     14          1           0        1.256479   -1.355213    1.373995
     15          8           0       -3.073761    0.011237   -0.334347
     16          1           0       -3.464937   -0.711090   -0.825729
     17          1           0       -3.761925    0.675422   -0.295374
 ---------------------------------------------------------------------
 Rotational constants (GHZ):           4.9984017           1.6749148           1.5236487
 Standard basis: 6-31G(d) (6D, 7F)
 There are   112 symmetry adapted cartesian basis functions of A   symmetry.
 There are   112 symmetry adapted basis functions of A   symmetry.
   112 basis functions,   212 primitive gaussians,   112 cartesian basis functions
    25 alpha electrons       25 beta electrons
       nuclear repulsion energy       251.3784728837 Hartrees.
 NAtoms=   17 NActive=   17 NUniq=   17 SFac= 1.00D+00 NAtFMM=   60 NAOKFM=F Big=F
 Integral buffers will be    131072 words long.
 Raffenetti 1 integral format.
 Two-electron integral symmetry is turned on.
 One-electron integrals computed using PRISM.
 NBasis=   112 RedAO= T EigKep=  3.06D-03  NBF=   112
 NBsUse=   112 1.00D-06 EigRej= -1.00D+00 NBFU=   112
 ExpMin= 1.61D-01 ExpMax= 5.48D+03 ExpMxC= 8.25D+02 IAcc=3 IRadAn=         5 AccDes= 0.00D+00
 Harris functional with IExCor=  205 and IRadAn=       5 diagonalized for initial guess.
 HarFok:  IExCor=  205 AccDes= 0.00D+00 IRadAn=         5 IDoV= 1 UseB2=F ITyADJ=14
 ICtDFT=  3500011 ScaDFX=  1.000000  1.000000  1.000000  1.000000
 FoFCou: FMM=F IPFlag=           0 FMFlag=      100000 FMFlg1=           0
         NFxFlg=           0 DoJE=T BraDBF=F KetDBF=T FulRan=T
         wScrn=  0.000000 ICntrl=       500 IOpCl=  0 I1Cent=   200000004 NGrid=           0
         NMat0=    1 NMatS0=      1 NMatT0=    0 NMatD0=    1 NMtDS0=    0 NMtDT0=    0
 Petite list used in FoFCou.
 Keep R1 ints in memory in canonical form, NReq=20924441.
 Requested convergence on RMS density matrix=1.00D-08 within 128 cycles.
 Requested convergence on MAX density matrix=1.00D-06.
 Requested convergence on             energy=1.00D-06.
 No special actions if energy rises.
 SCF Done:  E(RHF) =  -287.150373018     A.U. after   12 cycles
            NFock= 12  Conv=0.68D-08     -V/T= 2.0016

 **********************************************************************

            Population analysis using the SCF density.

 **********************************************************************

 Orbital symmetries:
       Occupied  (A) (A) (A) (A) (A) (A) (A) (A) (A) (A) (A) (A)
                 (A) (A) (A) (A) (A) (A) (A) (A) (A) (A) (A) (A)
                 (A)
       Virtual   (A) (A) (A) (A) (A) (A) (A) (A) (A) (A) (A) (A)
                 (A) (A) (A) (A) (A) (A) (A) (A) (A) (A) (A) (A)
                 (A) (A) (A) (A) (A) (A) (A) (A) (A) (A) (A) (A)
                 (A) (A) (A) (A) (A) (A) (A) (A) (A) (A) (A) (A)
                 (A) (A) (A) (A) (A) (A) (A) (A) (A) (A) (A) (A)
                 (A) (A) (A) (A) (A) (A) (A) (A) (A) (A) (A) (A)
                 (A) (A) (A) (A) (A) (A) (A) (A) (A) (A) (A) (A)
                 (A) (A) (A)
 The electronic state is 1-A.
 Alpha  occ. eigenvalues --  -20.57645 -15.52760 -11.22932 -11.22587 -11.20165
 Alpha  occ. eigenvalues --  -11.18818  -1.35900  -1.20208  -1.00022  -0.95288
 Alpha  occ. eigenvalues --   -0.79911  -0.76549  -0.72328  -0.66138  -0.61973
 Alpha  occ. eigenvalues --   -0.60675  -0.57080  -0.55510  -0.51498  -0.49209
 Alpha  occ. eigenvalues --   -0.47736  -0.46173  -0.45639  -0.43106  -0.35858
 Alpha virt. eigenvalues --    0.19261   0.23715   0.26500   0.29065   0.30302
 Alpha virt. eigenvalues --    0.31292   0.32115   0.33871   0.35235   0.37391
 Alpha virt. eigenvalues --    0.39083   0.39285   0.42772   0.47282   0.51578
 Alpha virt. eigenvalues --    0.54025   0.74793   0.77831   0.77951   0.81027
 Alpha virt. eigenvalues --    0.81908   0.85259   0.91862   0.93707   0.93920
 Alpha virt. eigenvalues --    0.96001   1.01697   1.03582   1.04075   1.10661
 Alpha virt. eigenvalues --    1.12383   1.14036   1.14290   1.14776   1.16540
 Alpha virt. eigenvalues --    1.18613   1.19884   1.20643   1.22711   1.23539
 Alpha virt. eigenvalues --    1.24968   1.25433   1.27799   1.37024   1.41700
 Alpha virt. eigenvalues --    1.45994   1.52489   1.59054   1.61160   1.68511
 Alpha virt. eigenvalues --    1.70848   1.93029   2.01497   2.01668   2.05027
 Alpha virt. eigenvalues --    2.10529   2.14160   2.14735   2.18658   2.22870
 Alpha virt. eigenvalues --    2.26006   2.31504   2.34638   2.37218   2.43953
 Alpha virt. eigenvalues --    2.44946   2.45739   2.52815   2.58792   2.60932
 Alpha virt. eigenvalues --    2.61326   2.73771   2.75170   2.83385   2.92090
 Alpha virt. eigenvalues --    2.93163   2.97158   2.99401   3.00881   3.04644
 Alpha virt. eigenvalues --    3.25717   4.08379   4.36785   4.65821   4.72937
 Alpha virt. eigenvalues --    4.88310   5.09880
          Condensed to atoms (all electrons):
               1          2          3          4          5          6
     1  N    7.065810   0.327123   0.295937  -0.033909  -0.047806  -0.085866
     2  H    0.327123   0.436783  -0.042576  -0.005470   0.005766  -0.000637
     3  C    0.295937  -0.042576   4.973607   0.402815   0.405325   0.335404
     4  H   -0.033909  -0.005470   0.402815   0.531653  -0.027334  -0.035745
     5  H   -0.047806   0.005766   0.405325  -0.027334   0.552287  -0.053747
     6  C   -0.085866  -0.000637   0.335404  -0.035745  -0.053747   5.202010
     7  H    0.002533   0.000939  -0.038630  -0.004257   0.003896   0.395847
     8  H    0.004482  -0.000030  -0.032890   0.001407  -0.002681   0.390361
     9  C   -0.084257  -0.000715  -0.059805   0.003782  -0.000393   0.318197
    10  H    0.002539   0.000967   0.002539  -0.000136   0.000014  -0.032882
    11  H    0.004526  -0.000031   0.003207  -0.000069   0.000163  -0.035783
    12  C    0.291908  -0.042404  -0.095726   0.006251  -0.002017  -0.061205
    13  H   -0.033995  -0.005563   0.006207  -0.000118  -0.000176   0.004005
    14  H   -0.048081   0.005792  -0.001900  -0.000179   0.003526  -0.000340
    15  O   -0.000023   0.000035  -0.000008   0.000000  -0.000000   0.000195
    16  H    0.000003   0.000003   0.000001  -0.000000   0.000000  -0.000019
    17  H    0.000001  -0.000001   0.000001  -0.000000   0.000000  -0.000032
               7          8          9         10         11         12
     1  N    0.002533   0.004482  -0.084257   0.002539   0.004526   0.291908
     2  H    0.000939  -0.000030  -0.000715   0.000967  -0.000031  -0.042404
     3  C   -0.038630  -0.032890  -0.059805   0.002539   0.003207  -0.095726
     4  H   -0.004257   0.001407   0.003782  -0.000136  -0.000069   0.006251
     5  H    0.003896  -0.002681  -0.000393   0.000014   0.000163  -0.002017
     6  C    0.395847   0.390361   0.318197  -0.032882  -0.035783  -0.061205
     7  H    0.550094  -0.027652  -0.039650  -0.005018   0.002779   0.003370
     8  H   -0.027652   0.541310  -0.033207   0.002199  -0.003959   0.003012
     9  C   -0.039650  -0.033207   5.269968   0.396242   0.387855   0.335147
    10  H   -0.005018   0.002199   0.396242   0.430790  -0.021711  -0.033109
    11  H    0.002779  -0.003959   0.387855  -0.021711   0.549799  -0.034399
    12  C    0.003370   0.003012   0.335147  -0.033109  -0.034399   4.972438
    13  H   -0.000158  -0.000069  -0.036118  -0.003631   0.001475   0.403475
    14  H   -0.000030   0.000174  -0.054112   0.003414  -0.002769   0.405198
    15  O    0.000629  -0.000008  -0.013263  -0.004359   0.000290   0.000497
    16  H   -0.000021   0.000000   0.000680   0.000861  -0.000015  -0.000042
    17  H   -0.000039   0.000001   0.000712   0.000816  -0.000026  -0.000018
              13         14         15         16         17
     1  N   -0.033995  -0.048081  -0.000023   0.000003   0.000001
     2  H   -0.005563   0.005792   0.000035   0.000003  -0.000001
     3  C    0.006207  -0.001900  -0.000008   0.000001   0.000001
     4  H   -0.000118  -0.000179   0.000000  -0.000000  -0.000000
     5  H   -0.000176   0.003526  -0.000000   0.000000   0.000000
     6  C    0.004005  -0.000340   0.000195  -0.000019  -0.000032
     7  H   -0.000158  -0.000030   0.000629  -0.000021  -0.000039
     8  H   -0.000069   0.000174  -0.000008   0.000000   0.000001
     9  C   -0.036118  -0.054112  -0.013263   0.000680   0.000712
    10  H   -0.003631   0.003414  -0.004359   0.000861   0.000816
    11  H    0.001475  -0.002769   0.000290  -0.000015  -0.000026
    12  C    0.403475   0.405198   0.000497  -0.000042  -0.000018
    13  H    0.534192  -0.028374   0.000257  -0.000027  -0.000007
    14  H   -0.028374   0.558737  -0.000007   0.000001   0.000000
    15  O    0.000257  -0.000007   8.356210   0.262789   0.263253
    16  H   -0.000027   0.000001   0.262789   0.313528  -0.017071
    17  H   -0.000007   0.000000   0.263253  -0.017071   0.311752
 Mulliken charges:
               1
     1  N   -0.660926
     2  H    0.320019
     3  C   -0.153506
     4  H    0.161309
     5  H    0.163178
     6  C   -0.339761
     7  H    0.155370
     8  H    0.157548
     9  C   -0.391063
    10  H    0.260467
    11  H    0.148667
    12  C   -0.152376
    13  H    0.158626
    14  H    0.158950
    15  O   -0.866486
    16  H    0.439329
    17  H    0.440657
 Sum of Mulliken charges =  -0.00000
 Mulliken charges with hydrogens summed into heavy atoms:
               1
     1  N   -0.340907
     3  C    0.170981
     6  C   -0.026844
     9  C    0.018071
    12  C    0.165199
    15  O    0.013499
 Electronic spatial extent (au):  <R**2>=            858.9615
 Charge=             -0.0000 electrons
 Dipole moment (field-independent basis, Debye):
    X=             -3.9717    Y=              0.8633    Z=             -0.8588  Tot=              4.1542
 Quadrupole moment (field-independent basis, Debye-Ang):
   XX=            -27.9509   YY=            -39.5185   ZZ=            -37.5282
   XY=              3.4714   XZ=              5.6017   YZ=              0.0012
 Traceless Quadrupole moment (field-independent basis, Debye-Ang):
   XX=              7.0484   YY=             -4.5193   ZZ=             -2.5290
   XY=              3.4714   XZ=              5.6017   YZ=              0.0012
 Octapole moment (field-independent basis, Debye-Ang**2):
  XXX=            -94.0916  YYY=             -0.0408  ZZZ=             -7.0218  XYY=            -17.9311
  XXY=              9.4128  XXZ=            -12.8958  XZZ=             -7.5174  YZZ=             -1.1065
  YYZ=             -0.9549  XYZ=             -6.4060
 Hexadecapole moment (field-independent basis, Debye-Ang**3):
 XXXX=           -381.3517 YYYY=           -240.1871 ZZZZ=           -140.5299 XXXY=             -2.4460
 XXXZ=             77.3354 YYYX=              7.4784 YYYZ=              0.1741 ZZZX=              8.0558
 ZZZY=              3.2976 XXYY=           -137.1692 XXZZ=           -129.0153 YYZZ=            -62.8615
 XXYZ=              4.5836 YYXZ=             11.1997 ZZXY=              5.7300
 N-N= 2.513784728837D+02 E-N=-1.175828703761D+03  KE= 2.866851172132D+02
 Calling FoFJK, ICntrl=      2127 FMM=F ISym2X=0 I1Cent= 0 IOpClX= 0 NMat=1 NMatS=1 NMatT=0.
 ***** Axes restored to original set *****
 -------------------------------------------------------------------
 Center     Atomic                   Forces (Hartrees/Bohr)
 Number     Number              X              Y              Z
 -------------------------------------------------------------------
      1        7           0.014544057   -0.003385372    0.005267793
      2        1          -0.009047576   -0.000182953   -0.013255608
      3        6          -0.003406315    0.006373160    0.001607736
      4        1          -0.002709194   -0.006799233   -0.002872554
      5        1           0.004050525   -0.000406561    0.005223729
      6        6           0.003700137    0.002382093   -0.002417394
      7        1          -0.004959879   -0.001696243   -0.003303180
      8        1          -0.001353771    0.000488142    0.005940590
      9        6           0.003884937   -0.007673401    0.003682255
     10        1          -0.009343785    0.006948688   -0.012061890
     11        1          -0.000934225    0.004621834    0.004035105
     12        6          -0.006198736   -0.000773798    0.000040621
     13        1           0.002049175    0.004165960   -0.005490028
     14        1           0.003623723    0.000250397    0.005828339
     15        8           0.014117450   -0.010000626    0.017625589
     16        1           0.001072511    0.002408884   -0.009189139
     17        1          -0.009089034    0.003279031   -0.000661964
 -------------------------------------------------------------------
 Cartesian Forces:  Max     0.017625589 RMS     0.006432104
 -----------------------------------------------------------------------------------------------
                       Internal Coordinate Forces (Hartree/Bohr or radian)
  Cent   Atom   N1       Length/X         N2         Alpha/Y        N3         Beta/Z          J
 -----------------------------------------------------------------------------------------------
      1  N            0.014544(     1)     -0.003385(    19)      0.005268(    37)
      2  H           -0.009048(     2)     -0.000183(    20)     -0.013256(    38)
      3  C           -0.003406(     3)      0.006373(    21)      0.001608(    39)
      4  H           -0.002709(     4)     -0.006799(    22)     -0.002873(    40)
      5  H            0.004051(     5)     -0.000407(    23)      0.005224(    41)
      6  C            0.003700(     6)      0.002382(    24)     -0.002417(    42)
      7  H           -0.004960(     7)     -0.001696(    25)     -0.003303(    43)
      8  H           -0.001354(     8)      0.000488(    26)      0.005941(    44)
      9  C            0.003969(     9)     -0.007986(    27)      0.003420(    45)
     10  H           -0.003312(    10)      0.002991(    28)     -0.004011(    46)
     11  H           -0.000934(    11)      0.004622(    29)      0.004035(    47)
     12  C           -0.006214(    12)     -0.000816(    30)      0.000027(    48)
     13  H            0.002049(    13)      0.004166(    31)     -0.005490(    49)
     14  H            0.003624(    14)      0.000250(    32)      0.005828(    50)
         X       10  -0.000000(    15)      9  -0.000518(    33)     12   0.000129(    51)     0
     15  O       10   0.010773(    16)     15  -0.000518(    34)      9  -0.000833(    52)     0
     16  H       16  -0.009478(    17)     10  -0.002238(    35)     15   0.000255(    53)     0
     17  H       16  -0.009546(    18)     10  -0.002950(    36)     15  -0.000126(    54)     0
 -----------------------------------------------------------------------------------------------
 Internal  Forces:  Max     0.014544057 RMS     0.005065740

 GradGradGradGradGradGradGradGradGradGradGradGradGradGradGradGradGradGrad
 Berny optimization.
 Search for a local minimum.
 Step number   1 out of a maximum of  100
 All quantities printed in internal units (Hartrees-Bohrs-Radians)
 Second derivative matrix not updated -- first step.
 The second derivative matrix:
                          rAH       dih
           rAH          0.04307
           dih          0.00000   0.00000
 ITU=  0
     Eigenvalues ---    0.00000   0.04307
 RFO step:  Lambda=-2.55094767D-03 EMin= 0.00000000D+00
 Linear search not attempted -- first point.
 Variable       Old X    -DE/DX   Delta X   Delta X   Delta X     New X
                                 (Linear)    (Quad)   (Total)
   rAH        3.77945   0.01077   0.00000   0.23617   0.23617   4.01563
   dih        0.00000   0.00013   0.00000   0.05062   0.05062   0.05062
         Item               Value     Threshold  Converged?
 Maximum Force            0.010773     0.000450     NO 
 RMS     Force            0.007619     0.000300     NO 
 Maximum Displacement     0.236173     0.001800     NO 
 RMS     Displacement     0.170792     0.001200     NO 
 Predicted change in Energy=-1.349884D-03
 GradGradGradGradGradGradGradGradGradGradGradGradGradGradGradGradGradGrad

 ---------------------------------------------------------------------------------------------------
                            Z-MATRIX (ANGSTROMS AND DEGREES)
   CD    Cent   Atom    N1       Length/X        N2       Alpha/Y        N3        Beta/Z          J
 ---------------------------------------------------------------------------------------------------
      1      1  N        0   0.844000          0.456000          0.923000
      2      2  H        0   1.372000          0.495000          1.798000
      3      3  C        0   1.643000          1.125000         -0.113000
      4      4  H        0   2.000000          2.097000          0.243000
      5      5  H        0   0.987000          1.307000         -0.971000
      6      6  C        0   2.779000          0.153000         -0.504000
      7      7  H        0   3.689000          0.384000          0.059000
      8      8  H        0   3.031000          0.222000         -1.566000
      9      9  C        0   2.231000         -1.240000         -0.112000
     10     10  H        0   2.866000         -1.707000          0.647000
     11     11  H        0   2.185000         -1.928000         -0.962000
     12     12  C        0   0.830000         -0.941000          0.469000
     13     13  H        0   0.542000         -1.609000          1.286000
     14     14  H        0   0.068000         -1.027000         -0.314000
     15         X       10   1.000000(    14)      9   90.000(    30)     12    2.900(    45)      0
     16     15  O       10   2.124977(    15)     15   90.000(    31)      9  180.000(    46)      0
     17     16  H       16   0.957200(    16)     10  127.740(    32)     15    0.000(    47)      0
     18     17  H       16   0.957200(    17)     10  127.740(    33)     15  180.000(    48)      0
 ---------------------------------------------------------------------------------------------------
                         Z-Matrix orientation:                         
 ---------------------------------------------------------------------
 Center     Atomic      Atomic             Coordinates (Angstroms)
 Number     Number       Type             X           Y           Z
 ---------------------------------------------------------------------
      1          7           0        0.844000    0.456000    0.923000
      2          1           0        1.372000    0.495000    1.798000
      3          6           0        1.643000    1.125000   -0.113000
      4          1           0        2.000000    2.097000    0.243000
      5          1           0        0.987000    1.307000   -0.971000
      6          6           0        2.779000    0.153000   -0.504000
      7          1           0        3.689000    0.384000    0.059000
      8          1           0        3.031000    0.222000   -1.566000
      9          6           0        2.231000   -1.240000   -0.112000
     10          1           0        2.866000   -1.707000    0.647000
     11          1           0        2.185000   -1.928000   -0.962000
     12          6           0        0.830000   -0.941000    0.469000
     13          1           0        0.542000   -1.609000    1.286000
     14          1           0        0.068000   -1.027000   -0.314000
     15         -1           0        2.099702   -1.704763    1.289482
     16          8           0        4.099131   -2.613886    2.120932
     17          1           0        3.859071   -2.862231    3.013640
     18          1           0        5.019170   -2.865619    2.040986
 ---------------------------------------------------------------------
                    Distance matrix (angstroms):
                    1          2          3          4          5
     1  N    0.000000
     2  H    1.022707   0.000000
     3  C    1.469441   2.030335   0.000000
     4  H    2.119343   2.319227   1.094974   0.000000
     5  H    2.081318   2.911173   1.095274   1.767502   0.000000
     6  C    2.423296   2.719525   1.545368   2.223508   2.181987
     7  H    2.974173   2.899126   2.182838   2.412664   3.035397
     8  H    3.321573   3.760759   2.202989   2.801975   2.389390
     9  C    2.423099   2.719597   2.437000   3.363771   2.961862
    10  H    2.973757   2.899248   3.177035   3.922192   3.902917
    11  H    3.321891   3.761582   3.214868   4.205577   3.449712
    12  C    1.468986   2.030296   2.295223   3.263345   2.674276
    13  H    2.118301   2.319021   3.262539   4.116801   3.714180
    14  H    2.081258   2.911605   2.674347   3.715138   2.593023
    15  X    2.525865   2.372150   3.191095   3.944422   3.926653
    16  O    4.631967   4.148096   5.000230   5.488663   5.883770
    17  H    4.946927   4.351357   5.530358   5.977170   6.442720
    18  H    5.451154   4.965345   5.653602   6.080766   6.537675
                    6          7          8          9         10
     6  C    0.000000
     7  H    1.094728   0.000000
     8  H    1.093668   1.760634   0.000000
     9  C    1.547390   2.189151   2.211687   0.000000
    10  H    2.189057   2.322790   2.940346   1.094255   0.000000
    11  H    2.212049   2.941054   2.388102   1.094514   1.761103
    12  C    2.437656   3.177673   3.215306   1.545886   2.182598
    13  H    3.363467   3.921886   4.204948   2.223350   2.412240
    14  H    2.962773   3.904061   3.450634   2.182829   3.035577
    15  X    2.670076   2.898773   3.568404   1.482361   1.000000
    16  O    4.035922   3.661569   4.772485   3.219233   2.124977
    17  H    4.757306   4.392817   5.583125   3.879675   2.814557
    18  H    4.539534   4.032076   5.147480   3.879675   2.814557
                   11         12         13         14         15
    11  H    0.000000
    12  C    2.204077   0.000000
    13  H    2.802626   1.093918   0.000000
    14  H    2.390271   1.095960   1.767314   0.000000
    15  X    2.264129   1.693714   1.560647   2.675506   0.000000
    16  O    3.693075   4.026741   3.789471   4.969619   2.348516
    17  H    4.413730   4.397908   3.944400   5.367819   2.721733
    18  H    4.234332   4.870774   4.711066   5.782781   3.230423
                   16         17         18
    16  O    0.000000
    17  H    0.957200   0.000000
    18  H    0.957200   1.513901   0.000000
 Stoichiometry    C4H11NO
 Framework group  C1[X(C4H11NO)]
 Deg. of freedom    45
 Full point group                 C1      NOp   1
 Largest Abelian subgroup         C1      NOp   1
 Largest concise Abelian subgroup C1      NOp   1
                         Standard orientation:                         
 ---------------------------------------------------------------------
 Center     Atomic      Atomic             Coordinates (Angstroms)
 Number     Number       Type             X           Y           Z
 ---------------------------------------------------------------------
      1          7           0        1.359471   -0.890852   -0.664227
      2          1           0        0.710978   -0.916903   -1.454612
      3          6           0        1.802573    0.499745   -0.493471
      4          1           0        2.123378    0.922643   -1.451182
      5          1           0        2.672025    0.490768    0.172559
      6          6           0        0.633251    1.268179    0.162544
      7          1           0        0.029843    1.768819   -0.601451
      8          1           0        0.985187    2.040524    0.852278
      9          6           0       -0.187357    0.165352    0.873031
     10          1           0       -1.201537    0.113288    0.465449
     11          1           0       -0.280816    0.338762    1.949672
     12          6           0        0.585387   -1.136401    0.559872
     13          1           0       -0.059805   -2.011482    0.438969
     14          1           0        1.297468   -1.357783    1.363028
     15          8           0       -3.171012    0.012183   -0.326052
     16          1           0       -3.583280   -0.723285   -0.779212
     17          1           0       -3.844762    0.691900   -0.309345
 ---------------------------------------------------------------------
 Rotational constants (GHZ):           4.9660352           1.6014749           1.4650214
 Standard basis: 6-31G(d) (6D, 7F)
 There are   112 symmetry adapted cartesian basis functions of A   symmetry.
 There are   112 symmetry adapted basis functions of A   symmetry.
   112 basis functions,   212 primitive gaussians,   112 cartesian basis functions
    25 alpha electrons       25 beta electrons
       nuclear repulsion energy       249.8551993269 Hartrees.
 NAtoms=   17 NActive=   17 NUniq=   17 SFac= 1.00D+00 NAtFMM=   60 NAOKFM=F Big=F
 Integral buffers will be    131072 words long.
 Raffenetti 1 integral format.
 Two-electron integral symmetry is turned on.
 One-electron integrals computed using PRISM.
 NBasis=   112 RedAO= T EigKep=  3.09D-03  NBF=   112
 NBsUse=   112 1.00D-06 EigRej= -1.00D+00 NBFU=   112
 Initial guess from the checkpoint file:  "PRLD-DON-H41.chk"
 B after Tr=     0.000000   -0.000000   -0.000000
         Rot=    0.999990    0.000039   -0.004368    0.000413 Ang=   0.50 deg.
 ExpMin= 1.61D-01 ExpMax= 5.48D+03 ExpMxC= 8.25D+02 IAcc=2 IRadAn=         4 AccDes= 0.00D+00
 Harris functional with IExCor=  205 and IRadAn=       4 diagonalized for initial guess.
 HarFok:  IExCor=  205 AccDes= 0.00D+00 IRadAn=         4 IDoV= 1 UseB2=F ITyADJ=14
 ICtDFT=  3500011 ScaDFX=  1.000000  1.000000  1.000000  1.000000
 FoFCou: FMM=F IPFlag=           0 FMFlag=      100000 FMFlg1=           0
         NFxFlg=           0 DoJE=T BraDBF=F KetDBF=T FulRan=T
         wScrn=  0.000000 ICntrl=       500 IOpCl=  0 I1Cent=   200000004 NGrid=           0
         NMat0=    1 NMatS0=      1 NMatT0=    0 NMatD0=    1 NMtDS0=    0 NMtDT0=    0
 Petite list used in FoFCou.
 Keep R1 ints in memory in canonical form, NReq=20924071.
 Requested convergence on RMS density matrix=1.00D-08 within 128 cycles.
 Requested convergence on MAX density matrix=1.00D-06.
 Requested convergence on             energy=1.00D-06.
 No special actions if energy rises.
 SCF Done:  E(RHF) =  -287.152391841     A.U. after   10 cycles
            NFock= 10  Conv=0.27D-08     -V/T= 2.0017
 Calling FoFJK, ICntrl=      2127 FMM=F ISym2X=0 I1Cent= 0 IOpClX= 0 NMat=1 NMatS=1 NMatT=0.
 ***** Axes restored to original set *****
 -------------------------------------------------------------------
 Center     Atomic                   Forces (Hartrees/Bohr)
 Number     Number              X              Y              Z
 -------------------------------------------------------------------
      1        7           0.014679282   -0.003504294    0.005183092
      2        1          -0.009097583   -0.000194070   -0.013223356
      3        6          -0.003553283    0.006375895    0.001626440
      4        1          -0.002679590   -0.006851583   -0.002892021
      5        1           0.004066862   -0.000402710    0.005224230
      6        6           0.003975396    0.002467940   -0.002271310
      7        1          -0.005042550   -0.001712902   -0.003377407
      8        1          -0.001380817    0.000381694    0.005984513
      9        6           0.003916725   -0.007768273    0.003681116
     10        1          -0.007432138    0.005496773   -0.009759186
     11        1          -0.000737177    0.004591500    0.004350854
     12        6          -0.006295999   -0.000748940    0.000470794
     13        1           0.002099457    0.004206260   -0.005578702
     14        1           0.003786014    0.000228232    0.005744696
     15        8           0.011946177   -0.008426486    0.014937050
     16        1           0.001187008    0.002815683   -0.009347012
     17        1          -0.009437783    0.003045282   -0.000753793
 -------------------------------------------------------------------
 Cartesian Forces:  Max     0.014937050 RMS     0.006044520
 -----------------------------------------------------------------------------------------------
                       Internal Coordinate Forces (Hartree/Bohr or radian)
  Cent   Atom   N1       Length/X         N2         Alpha/Y        N3         Beta/Z          J
 -----------------------------------------------------------------------------------------------
      1  N            0.014679(     1)     -0.003504(    19)      0.005183(    37)
      2  H           -0.009098(     2)     -0.000194(    20)     -0.013223(    38)
      3  C           -0.003553(     3)      0.006376(    21)      0.001626(    39)
      4  H           -0.002680(     4)     -0.006852(    22)     -0.002892(    40)
      5  H            0.004067(     5)     -0.000403(    23)      0.005224(    41)
      6  C            0.003975(     6)      0.002468(    24)     -0.002271(    42)
      7  H           -0.005043(     7)     -0.001713(    25)     -0.003377(    43)
      8  H           -0.001381(     8)      0.000382(    26)      0.005985(    44)
      9  C            0.004005(     9)     -0.008068(    27)      0.003423(    45)
     10  H           -0.003813(    10)      0.003267(    28)     -0.004653(    46)
     11  H           -0.000737(    11)      0.004592(    29)      0.004351(    47)
     12  C           -0.006309(    12)     -0.000785(    30)      0.000459(    48)
     13  H            0.002099(    13)      0.004206(    31)     -0.005579(    49)
     14  H            0.003786(    14)      0.000228(    32)      0.005745(    50)
         X       10  -0.000000(    15)      9  -0.000479(    33)     12   0.000110(    51)     0
     15  O       10   0.006594(    16)     15  -0.000479(    34)      9  -0.000808(    52)     0
     16  H       16  -0.009745(    17)     10  -0.002359(    35)     15   0.000245(    53)     0
     17  H       16  -0.009809(    18)     10  -0.002963(    36)     15  -0.000134(    54)     0
 -----------------------------------------------------------------------------------------------
 Internal  Forces:  Max     0.014679282 RMS     0.005002028

 GradGradGradGradGradGradGradGradGradGradGradGradGradGradGradGradGradGrad
 Berny optimization.
 Search for a local minimum.
 Step number   2 out of a maximum of  100
 All quantities printed in internal units (Hartrees-Bohrs-Radians)
 Update second derivatives using D2CorN and points    1    2
 DE= -2.02D-03 DEPred=-1.35D-03 R= 1.50D+00
 TightC=F SS=  1.41D+00  RLast= 2.42D-01 DXNew= 5.0454D-01 7.2461D-01
 Trust test= 1.50D+00 RLast= 2.42D-01 DXMaxT set to 5.05D-01
 The second derivative matrix:
                          rAH       dih
           rAH          0.01881
           dih         -0.00256   0.00002
 ITU=  1  0
     Eigenvalues ---   -0.00033   0.01915
 RFO step:  Lambda=-6.09202165D-04 EMin=-3.26241035D-04
 Quartic linear search produced a step of  2.00000.
 Maximum step size (   0.505) exceeded in Quadratic search.
    -- Step size scaled by   0.505
 Variable       Old X    -DE/DX   Delta X   Delta X   Delta X     New X
                                 (Linear)    (Quad)   (Total)
   rAH        4.01563   0.00659   0.47235   0.06315   0.53550   4.55112
   dih        0.05062   0.00011   0.10124   0.50057   0.60181   0.65243
         Item               Value     Threshold  Converged?
 Maximum Force            0.006594     0.000450     NO 
 RMS     Force            0.004663     0.000300     NO 
 Maximum Displacement     0.601807     0.001800     NO 
 RMS     Displacement     0.569619     0.001200     NO 
 Predicted change in Energy=-1.722452D-03
 GradGradGradGradGradGradGradGradGradGradGradGradGradGradGradGradGradGrad

 ---------------------------------------------------------------------------------------------------
                            Z-MATRIX (ANGSTROMS AND DEGREES)
   CD    Cent   Atom    N1       Length/X        N2       Alpha/Y        N3        Beta/Z          J
 ---------------------------------------------------------------------------------------------------
      1      1  N        0   0.844000          0.456000          0.923000
      2      2  H        0   1.372000          0.495000          1.798000
      3      3  C        0   1.643000          1.125000         -0.113000
      4      4  H        0   2.000000          2.097000          0.243000
      5      5  H        0   0.987000          1.307000         -0.971000
      6      6  C        0   2.779000          0.153000         -0.504000
      7      7  H        0   3.689000          0.384000          0.059000
      8      8  H        0   3.031000          0.222000         -1.566000
      9      9  C        0   2.231000         -1.240000         -0.112000
     10     10  H        0   2.866000         -1.707000          0.647000
     11     11  H        0   2.185000         -1.928000         -0.962000
     12     12  C        0   0.830000         -0.941000          0.469000
     13     13  H        0   0.542000         -1.609000          1.286000
     14     14  H        0   0.068000         -1.027000         -0.314000
     15         X       10   1.000000(    14)      9   90.000(    30)     12   37.381(    45)      0
     16     15  O       10   2.408352(    15)     15   90.000(    31)      9  180.000(    46)      0
     17     16  H       16   0.957200(    16)     10  127.740(    32)     15    0.000(    47)      0
     18     17  H       16   0.957200(    17)     10  127.740(    33)     15  180.000(    48)      0
 ---------------------------------------------------------------------------------------------------
                         Z-Matrix orientation:                         
 ---------------------------------------------------------------------
 Center     Atomic      Atomic             Coordinates (Angstroms)
 Number     Number       Type             X           Y           Z
 ---------------------------------------------------------------------
      1          7           0        0.844000    0.456000    0.923000
      2          1           0        1.372000    0.495000    1.798000
      3          6           0        1.643000    1.125000   -0.113000
      4          1           0        2.000000    2.097000    0.243000
      5          1           0        0.987000    1.307000   -0.971000
      6          6           0        2.779000    0.153000   -0.504000
      7          1           0        3.689000    0.384000    0.059000
      8          1           0        3.031000    0.222000   -1.566000
      9          6           0        2.231000   -1.240000   -0.112000
     10          1           0        2.866000   -1.707000    0.647000
     11          1           0        2.185000   -1.928000   -0.962000
     12          6           0        0.830000   -0.941000    0.469000
     13          1           0        0.542000   -1.609000    1.286000
     14          1           0        0.068000   -1.027000   -0.314000
     15         -1           0        2.078221   -2.217141    0.992196
     16          8           0        4.263574   -2.734822    2.317486
     17          1           0        4.007254   -3.371013    2.985164
     18          1           0        5.199873   -2.598710    2.462571
 ---------------------------------------------------------------------
                    Distance matrix (angstroms):
                    1          2          3          4          5
     1  N    0.000000
     2  H    1.022707   0.000000
     3  C    1.469441   2.030335   0.000000
     4  H    2.119343   2.319227   1.094974   0.000000
     5  H    2.081318   2.911173   1.095274   1.767502   0.000000
     6  C    2.423296   2.719525   1.545368   2.223508   2.181987
     7  H    2.974173   2.899126   2.182838   2.412664   3.035397
     8  H    3.321573   3.760759   2.202989   2.801975   2.389390
     9  C    2.423099   2.719597   2.437000   3.363771   2.961862
    10  H    2.973757   2.899248   3.177035   3.922192   3.902917
    11  H    3.321891   3.761582   3.214868   4.205577   3.449712
    12  C    1.468986   2.030296   2.295223   3.263345   2.674276
    13  H    2.118301   2.319021   3.262539   4.116801   3.714180
    14  H    2.081258   2.911605   2.674347   3.715138   2.593023
    15  X    2.945127   2.916124   3.546940   4.379410   4.179052
    16  O    4.880515   4.366099   5.260504   5.724838   6.155194
    17  H    5.376312   4.827005   5.949996   6.437989   6.830591
    18  H    5.538516   4.966418   5.757685   6.100441   6.692704
                    6          7          8          9         10
     6  C    0.000000
     7  H    1.094728   0.000000
     8  H    1.093668   1.760634   0.000000
     9  C    1.547390   2.189151   2.211687   0.000000
    10  H    2.189057   2.322790   2.940346   1.094255   0.000000
    11  H    2.212049   2.941054   2.388102   1.094514   1.761103
    12  C    2.437656   3.177673   3.215306   1.545886   2.182598
    13  H    3.363467   3.921886   4.204948   2.223350   2.412240
    14  H    2.962773   3.904061   3.450634   2.182829   3.035577
    15  X    2.889163   3.198656   3.660815   1.482361   1.000000
    16  O    4.301658   3.893321   5.034233   3.502607   2.408352
    17  H    5.108967   4.771147   5.880128   4.157971   3.088432
    18  H    4.715197   4.117821   5.374924   4.157971   3.088432
                   11         12         13         14         15
    11  H    0.000000
    12  C    2.204077   0.000000
    13  H    2.802626   1.093918   0.000000
    14  H    2.390271   1.095960   1.767314   0.000000
    15  X    1.978354   1.860195   1.678133   2.676485   0.000000
    16  O    3.965661   4.292334   4.022630   5.238723   2.607711
    17  H    4.580720   4.725567   4.242621   5.647708   3.004082
    18  H    4.611616   5.081153   4.905061   6.042826   3.471644
                   16         17         18
    16  O    0.000000
    17  H    0.957200   0.000000
    18  H    0.957200   1.513901   0.000000
 Stoichiometry    C4H11NO
 Framework group  C1[X(C4H11NO)]
 Deg. of freedom    45
 Full point group                 C1      NOp   1
 Largest Abelian subgroup         C1      NOp   1
 Largest concise Abelian subgroup C1      NOp   1
                         Standard orientation:                         
 ---------------------------------------------------------------------
 Center     Atomic      Atomic             Coordinates (Angstroms)
 Number     Number       Type             X           Y           Z
 ---------------------------------------------------------------------
      1          7           0        1.387450   -0.870388   -0.716638
      2          1           0        0.715095   -0.866228   -1.487256
      3          6           0        1.842293    0.511672   -0.510998
      4          1           0        2.135868    0.966697   -1.462699
      5          1           0        2.731549    0.476033    0.127420
      6          6           0        0.697215    1.261039    0.206919
      7          1           0        0.073287    1.790464   -0.520303
      8          1           0        1.073718    2.007366    0.912151
      9          6           0       -0.106750    0.137079    0.903173
     10          1           0       -1.133100    0.103194    0.525214
     11          1           0       -0.166572    0.272955    1.987571
     12          6           0        0.649775   -1.155804    0.521221
     13          1           0       -0.003041   -2.023651    0.389580
     14          1           0        1.384874   -1.407930    1.294003
     15          8           0       -3.391998    0.028618   -0.306638
     16          1           0       -3.974673   -0.729408   -0.352650
     17          1           0       -3.908371    0.750360   -0.665358
 ---------------------------------------------------------------------
 Rotational constants (GHZ):           4.9000685           1.4495447           1.3412118
 Standard basis: 6-31G(d) (6D, 7F)
 There are   112 symmetry adapted cartesian basis functions of A   symmetry.
 There are   112 symmetry adapted basis functions of A   symmetry.
   112 basis functions,   212 primitive gaussians,   112 cartesian basis functions
    25 alpha electrons       25 beta electrons
       nuclear repulsion energy       246.7124540188 Hartrees.
 NAtoms=   17 NActive=   17 NUniq=   17 SFac= 1.00D+00 NAtFMM=   60 NAOKFM=F Big=F
 Integral buffers will be    131072 words long.
 Raffenetti 1 integral format.
 Two-electron integral symmetry is turned on.
 One-electron integrals computed using PRISM.
 NBasis=   112 RedAO= T EigKep=  3.12D-03  NBF=   112
 NBsUse=   112 1.00D-06 EigRej= -1.00D+00 NBFU=   112
 Initial guess from the checkpoint file:  "PRLD-DON-H41.chk"
 B after Tr=     0.000000    0.000000   -0.000000
         Rot=    0.999883   -0.012451   -0.008761    0.001731 Ang=  -1.76 deg.
 ExpMin= 1.61D-01 ExpMax= 5.48D+03 ExpMxC= 8.25D+02 IAcc=2 IRadAn=         4 AccDes= 0.00D+00
 Harris functional with IExCor=  205 and IRadAn=       4 diagonalized for initial guess.
 HarFok:  IExCor=  205 AccDes= 0.00D+00 IRadAn=         4 IDoV= 1 UseB2=F ITyADJ=14
 ICtDFT=  3500011 ScaDFX=  1.000000  1.000000  1.000000  1.000000
 FoFCou: FMM=F IPFlag=           0 FMFlag=      100000 FMFlg1=           0
         NFxFlg=           0 DoJE=T BraDBF=F KetDBF=T FulRan=T
         wScrn=  0.000000 ICntrl=       500 IOpCl=  0 I1Cent=   200000004 NGrid=           0
         NMat0=    1 NMatS0=      1 NMatT0=    0 NMatD0=    1 NMtDS0=    0 NMtDT0=    0
 Petite list used in FoFCou.
 Keep R1 ints in memory in canonical form, NReq=20923244.
 Requested convergence on RMS density matrix=1.00D-08 within 128 cycles.
 Requested convergence on MAX density matrix=1.00D-06.
 Requested convergence on             energy=1.00D-06.
 No special actions if energy rises.
 SCF Done:  E(RHF) =  -287.154511235     A.U. after   12 cycles
            NFock= 12  Conv=0.59D-08     -V/T= 2.0018
 Calling FoFJK, ICntrl=      2127 FMM=F ISym2X=0 I1Cent= 0 IOpClX= 0 NMat=1 NMatS=1 NMatT=0.
 ***** Axes restored to original set *****
 -------------------------------------------------------------------
 Center     Atomic                   Forces (Hartrees/Bohr)
 Number     Number              X              Y              Z
 -------------------------------------------------------------------
      1        7           0.014978441   -0.003708432    0.005020449
      2        1          -0.009238794   -0.000254583   -0.013123975
      3        6          -0.003841043    0.006359276    0.001714688
      4        1          -0.002632112   -0.006929277   -0.002926572
      5        1           0.004123982   -0.000403351    0.005211874
      6        6           0.004323659    0.002549605   -0.002115312
      7        1          -0.005104632   -0.001639172   -0.003517545
      8        1          -0.001379703    0.000203634    0.006095358
      9        6           0.003437964   -0.007639066    0.003135273
     10        1          -0.005157435    0.003761563   -0.007010425
     11        1          -0.000370396    0.004548000    0.004827417
     12        6          -0.006482234   -0.000669322    0.001202524
     13        1           0.002191967    0.004314048   -0.005691364
     14        1           0.004048514    0.000194017    0.005587280
     15        8           0.009654746   -0.006798547    0.012045426
     16        1           0.001287729    0.006652108   -0.007643901
     17        1          -0.009840653   -0.000540501   -0.002811194
 -------------------------------------------------------------------
 Cartesian Forces:  Max     0.014978441 RMS     0.005691617
 -----------------------------------------------------------------------------------------------
                       Internal Coordinate Forces (Hartree/Bohr or radian)
  Cent   Atom   N1       Length/X         N2         Alpha/Y        N3         Beta/Z          J
 -----------------------------------------------------------------------------------------------
      1  N            0.014978(     1)     -0.003708(    19)      0.005020(    37)
      2  H           -0.009239(     2)     -0.000255(    20)     -0.013124(    38)
      3  C           -0.003841(     3)      0.006359(    21)      0.001715(    39)
      4  H           -0.002632(     4)     -0.006929(    22)     -0.002927(    40)
      5  H            0.004124(     5)     -0.000403(    23)      0.005212(    41)
      6  C            0.004324(     6)      0.002550(    24)     -0.002115(    42)
      7  H           -0.005105(     7)     -0.001639(    25)     -0.003518(    43)
      8  H           -0.001380(     8)      0.000204(    26)      0.006095(    44)
      9  C            0.003563(     9)     -0.007949(    27)      0.002840(    45)
     10  H           -0.004183(    10)      0.003377(    28)     -0.005128(    46)
     11  H           -0.000370(    11)      0.004548(    29)      0.004827(    47)
     12  C           -0.006479(    12)     -0.000661(    30)      0.001205(    48)
     13  H            0.002192(    13)      0.004314(    31)     -0.005691(    49)
     14  H            0.004049(    14)      0.000194(    32)      0.005587(    50)
         X       10   0.000000(    15)      9  -0.000103(    33)     12  -0.000025(    51)     0
     15  O       10   0.002036(    16)     15  -0.000103(    34)      9  -0.000896(    52)     0
     16  H       16  -0.010098(    17)     10  -0.002774(    35)     15   0.000188(    53)     0
     17  H       16  -0.010129(    18)     10  -0.002814(    36)     15  -0.000213(    54)     0
 -----------------------------------------------------------------------------------------------
 Internal  Forces:  Max     0.014978441 RMS     0.005004898

 GradGradGradGradGradGradGradGradGradGradGradGradGradGradGradGradGradGrad
 Berny optimization.
 Search for a local minimum.
 Step number   3 out of a maximum of  100
 All quantities printed in internal units (Hartrees-Bohrs-Radians)
 Update second derivatives using D2CorN and points    3
 DE= -2.12D-03 DEPred=-1.72D-03 R= 1.23D+00
 TightC=F SS=  1.41D+00  RLast= 8.06D-01 DXNew= 8.4853D-01 2.4167D+00
 Trust test= 1.23D+00 RLast= 8.06D-01 DXMaxT set to 8.49D-01
 The second derivative matrix:
                          rAH       dih
           rAH          0.01881
           dih         -0.00256   0.00002
 ITU=  1  1  0
 Linear search step of   1.611 exceeds DXMaxT=   0.849 but not scaled.
 Quartic linear search produced a step of  2.00000.
 Variable       Old X    -DE/DX   Delta X   Delta X   Delta X     New X
                                 (Linear)    (Quad)   (Total)
   rAH        4.55112   0.00204   1.07100   0.00000   1.07100   5.62212
   dih        0.65243  -0.00002   1.20361   0.00000   1.20361   1.85604
         Item               Value     Threshold  Converged?
 Maximum Force            0.002036     0.000450     NO 
 RMS     Force            0.001440     0.000300     NO 
 Maximum Displacement     1.203615     0.001800     NO 
 RMS     Displacement     1.139238     0.001200     NO 
 Predicted change in Energy=-5.349077D-03
 GradGradGradGradGradGradGradGradGradGradGradGradGradGradGradGradGradGrad

 ---------------------------------------------------------------------------------------------------
                            Z-MATRIX (ANGSTROMS AND DEGREES)
   CD    Cent   Atom    N1       Length/X        N2       Alpha/Y        N3        Beta/Z          J
 ---------------------------------------------------------------------------------------------------
      1      1  N        0   0.844000          0.456000          0.923000
      2      2  H        0   1.372000          0.495000          1.798000
      3      3  C        0   1.643000          1.125000         -0.113000
      4      4  H        0   2.000000          2.097000          0.243000
      5      5  H        0   0.987000          1.307000         -0.971000
      6      6  C        0   2.779000          0.153000         -0.504000
      7      7  H        0   3.689000          0.384000          0.059000
      8      8  H        0   3.031000          0.222000         -1.566000
      9      9  C        0   2.231000         -1.240000         -0.112000
     10     10  H        0   2.866000         -1.707000          0.647000
     11     11  H        0   2.185000         -1.928000         -0.962000
     12     12  C        0   0.830000         -0.941000          0.469000
     13     13  H        0   0.542000         -1.609000          1.286000
     14     14  H        0   0.068000         -1.027000         -0.314000
     15         X       10   1.000000(    14)      9   90.000(    30)     12  106.343(    45)      0
     16     15  O       10   2.975100(    15)     15   90.000(    31)      9  180.000(    46)      0
     17     16  H       16   0.957200(    16)     10  127.740(    32)     15    0.000(    47)      0
     18     17  H       16   0.957200(    17)     10  127.740(    33)     15  180.000(    48)      0
 ---------------------------------------------------------------------------------------------------
                         Z-Matrix orientation:                         
 ---------------------------------------------------------------------
 Center     Atomic      Atomic             Coordinates (Angstroms)
 Number     Number       Type             X           Y           Z
 ---------------------------------------------------------------------
      1          7           0        0.844000    0.456000    0.923000
      2          1           0        1.372000    0.495000    1.798000
      3          6           0        1.643000    1.125000   -0.113000
      4          1           0        2.000000    2.097000    0.243000
      5          1           0        0.987000    1.307000   -0.971000
      6          6           0        2.779000    0.153000   -0.504000
      7          1           0        3.689000    0.384000    0.059000
      8          1           0        3.031000    0.222000   -1.566000
      9          6           0        2.231000   -1.240000   -0.112000
     10          1           0        2.866000   -1.707000    0.647000
     11          1           0        2.185000   -1.928000   -0.962000
     12          6           0        0.830000   -0.941000    0.469000
     13          1           0        0.542000   -1.609000    1.286000
     14          1           0        0.068000   -1.027000   -0.314000
     15         -1           0        2.775956   -2.587098    0.180824
     16          8           0        4.592460   -2.976696    2.710596
     17          1           0        4.864291   -3.892926    2.764104
     18          1           0        5.000608   -2.560545    3.469849
 ---------------------------------------------------------------------
                    Distance matrix (angstroms):
                    1          2          3          4          5
     1  N    0.000000
     2  H    1.022707   0.000000
     3  C    1.469441   2.030335   0.000000
     4  H    2.119343   2.319227   1.094974   0.000000
     5  H    2.081318   2.911173   1.095274   1.767502   0.000000
     6  C    2.423296   2.719525   1.545368   2.223508   2.181987
     7  H    2.974173   2.899126   2.182838   2.412664   3.035397
     8  H    3.321573   3.760759   2.202989   2.801975   2.389390
     9  C    2.423099   2.719597   2.437000   3.363771   2.961862
    10  H    2.973757   2.899248   3.177035   3.922192   3.902917
    11  H    3.321891   3.761582   3.214868   4.205577   3.449712
    12  C    1.468986   2.030296   2.295223   3.263345   2.674276
    13  H    2.118301   2.319021   3.262539   4.116801   3.714180
    14  H    2.081258   2.911605   2.674347   3.715138   2.593023
    15  X    3.680180   3.753089   3.892248   4.748341   4.437461
    16  O    5.387936   4.822537   5.787566   6.209047   6.701011
    17  H    6.202061   5.690637   6.620727   7.102066   7.484893
    18  H    5.732659   5.029735   6.139510   6.411625   7.126577
                    6          7          8          9         10
     6  C    0.000000
     7  H    1.094728   0.000000
     8  H    1.093668   1.760634   0.000000
     9  C    1.547390   2.189151   2.211687   0.000000
    10  H    2.189057   2.322790   2.940346   1.094255   0.000000
    11  H    2.212049   2.941054   2.388102   1.094514   1.761103
    12  C    2.437656   3.177673   3.215306   1.545886   2.182598
    13  H    3.363467   3.921886   4.204948   2.223350   2.412240
    14  H    2.962773   3.904061   3.450634   2.182829   3.035577
    15  X    2.824381   3.110613   3.317751   1.482361   1.000000
    16  O    4.839138   4.375097   5.564089   4.069355   2.975100
    17  H    5.603433   5.195285   6.248470   4.716377   3.640545
    18  H    5.300033   4.693033   6.081257   4.716377   3.640545
                   11         12         13         14         15
    11  H    0.000000
    12  C    2.204077   0.000000
    13  H    2.802626   1.093918   0.000000
    14  H    2.390271   1.095960   1.767314   0.000000
    15  X    1.445574   2.565040   2.677434   3.164140   0.000000
    16  O    4.514819   4.829588   4.506250   5.781024   3.138665
    17  H    4.992333   5.500625   5.107182   6.379080   3.569267
    18  H    5.288577   5.387207   5.055079   6.403116   3.970827
                   16         17         18
    16  O    0.000000
    17  H    0.957200   0.000000
    18  H    0.957200   1.513901   0.000000
 Stoichiometry    C4H11NO
 Framework group  C1[X(C4H11NO)]
 Deg. of freedom    45
 Full point group                 C1      NOp   1
 Largest Abelian subgroup         C1      NOp   1
 Largest concise Abelian subgroup C1      NOp   1
                         Standard orientation:                         
 ---------------------------------------------------------------------
 Center     Atomic      Atomic             Coordinates (Angstroms)
 Number     Number       Type             X           Y           Z
 ---------------------------------------------------------------------
      1          7           0        1.456930   -0.876000   -0.742817
      2          1           0        0.748550   -0.874017   -1.480464
      3          6           0        1.925476    0.505652   -0.567437
      4          1           0        2.174703    0.954082   -1.534786
      5          1           0        2.844095    0.470665    0.027996
      6          6           0        0.818391    1.263173    0.199821
      7          1           0        0.162126    1.790496   -0.499948
      8          1           0        1.230525    2.012302    0.881775
      9          6           0        0.045026    0.146099    0.940409
     10          1           0       -0.998309    0.113564    0.612097
     11          1           0        0.037504    0.288522    2.025590
     12          6           0        0.778322   -1.151611    0.530545
     13          1           0        0.117203   -2.017945    0.435441
     14          1           0        1.548689   -1.401761    1.268847
     15          8           0       -3.834965    0.025106   -0.280529
     16          1           0       -4.615035   -0.105361    0.258637
     17          1           0       -4.172131    0.120733   -1.171262
 ---------------------------------------------------------------------
 Rotational constants (GHZ):           4.8030496           1.1950259           1.1308665
 Standard basis: 6-31G(d) (6D, 7F)
 There are   112 symmetry adapted cartesian basis functions of A   symmetry.
 There are   112 symmetry adapted basis functions of A   symmetry.
   112 basis functions,   212 primitive gaussians,   112 cartesian basis functions
    25 alpha electrons       25 beta electrons
       nuclear repulsion energy       241.4759919796 Hartrees.
 NAtoms=   17 NActive=   17 NUniq=   17 SFac= 1.00D+00 NAtFMM=   60 NAOKFM=F Big=F
 Integral buffers will be    131072 words long.
 Raffenetti 1 integral format.
 Two-electron integral symmetry is turned on.
 One-electron integrals computed using PRISM.
 NBasis=   112 RedAO= T EigKep=  3.15D-03  NBF=   112
 NBsUse=   112 1.00D-06 EigRej= -1.00D+00 NBFU=   112
 Initial guess from the checkpoint file:  "PRLD-DON-H41.chk"
 B after Tr=     0.000000    0.000000    0.000000
         Rot=    0.999854    0.011459   -0.012616    0.000773 Ang=   1.96 deg.
 ExpMin= 1.61D-01 ExpMax= 5.48D+03 ExpMxC= 8.25D+02 IAcc=2 IRadAn=         4 AccDes= 0.00D+00
 Harris functional with IExCor=  205 and IRadAn=       4 diagonalized for initial guess.
 HarFok:  IExCor=  205 AccDes= 0.00D+00 IRadAn=         4 IDoV= 1 UseB2=F ITyADJ=14
 ICtDFT=  3500011 ScaDFX=  1.000000  1.000000  1.000000  1.000000
 FoFCou: FMM=F IPFlag=           0 FMFlag=      100000 FMFlg1=           0
         NFxFlg=           0 DoJE=T BraDBF=F KetDBF=T FulRan=T
         wScrn=  0.000000 ICntrl=       500 IOpCl=  0 I1Cent=   200000004 NGrid=           0
         NMat0=    1 NMatS0=      1 NMatT0=    0 NMatD0=    1 NMtDS0=    0 NMtDT0=    0
 Petite list used in FoFCou.
 Keep R1 ints in memory in canonical form, NReq=20921757.
 Requested convergence on RMS density matrix=1.00D-08 within 128 cycles.
 Requested convergence on MAX density matrix=1.00D-06.
 Requested convergence on             energy=1.00D-06.
 No special actions if energy rises.
 SCF Done:  E(RHF) =  -287.155086730     A.U. after   13 cycles
            NFock= 13  Conv=0.54D-08     -V/T= 2.0018
 Calling FoFJK, ICntrl=      2127 FMM=F ISym2X=0 I1Cent= 0 IOpClX= 0 NMat=1 NMatS=1 NMatT=0.
 ***** Axes restored to original set *****
 -------------------------------------------------------------------
 Center     Atomic                   Forces (Hartrees/Bohr)
 Number     Number              X              Y              Z
 -------------------------------------------------------------------
      1        7           0.015279639   -0.003960748    0.004821808
      2        1          -0.009409188   -0.000170464   -0.013027661
      3        6          -0.004084802    0.006406069    0.001658189
      4        1          -0.002578702   -0.007016695   -0.002973816
      5        1           0.004146141   -0.000398771    0.005255093
      6        6           0.004835187    0.002734434   -0.001853759
      7        1          -0.005178648   -0.001703587   -0.003701869
      8        1          -0.001400689    0.000024268    0.006220613
      9        6           0.002593070   -0.006969630    0.002016542
     10        1          -0.003774546    0.002705644   -0.005302713
     11        1          -0.000071969    0.004421125    0.005275415
     12        6          -0.006806845   -0.000780607    0.002016351
     13        1           0.002248887    0.004342140   -0.005857877
     14        1           0.004349914    0.000161872    0.005474955
     15        8           0.008515254   -0.006068223    0.010472655
     16        1          -0.003752762    0.009585619   -0.001930810
     17        1          -0.004909941   -0.003312447   -0.008563115
 -------------------------------------------------------------------
 Cartesian Forces:  Max     0.015279639 RMS     0.005550006
 -----------------------------------------------------------------------------------------------
                       Internal Coordinate Forces (Hartree/Bohr or radian)
  Cent   Atom   N1       Length/X         N2         Alpha/Y        N3         Beta/Z          J
 -----------------------------------------------------------------------------------------------
      1  N            0.015280(     1)     -0.003961(    19)      0.004822(    37)
      2  H           -0.009409(     2)     -0.000170(    20)     -0.013028(    38)
      3  C           -0.004085(     3)      0.006406(    21)      0.001658(    39)
      4  H           -0.002579(     4)     -0.007017(    22)     -0.002974(    40)
      5  H            0.004146(     5)     -0.000399(    23)      0.005255(    41)
      6  C            0.004835(     6)      0.002734(    24)     -0.001854(    42)
      7  H           -0.005179(     7)     -0.001704(    25)     -0.003702(    43)
      8  H           -0.001401(     8)      0.000024(    26)      0.006221(    44)
      9  C            0.002690(     9)     -0.007118(    27)      0.001845(    45)
     10  H           -0.004022(    10)      0.003048(    28)     -0.005155(    46)
     11  H           -0.000072(    11)      0.004421(    29)      0.005275(    47)
     12  C           -0.006803(    12)     -0.000770(    30)      0.002020(    48)
     13  H            0.002249(    13)      0.004342(    31)     -0.005858(    49)
     14  H            0.004350(    14)      0.000162(    32)      0.005475(    50)
         X       10   0.000000(    15)      9   0.000384(    33)     12  -0.000031(    51)     0
     15  O       10  -0.000188(    16)     15   0.000384(    34)      9  -0.000303(    52)     0
     16  H       16  -0.010349(    17)     10  -0.002913(    35)     15   0.000025(    53)     0
     17  H       16  -0.010326(    18)     10  -0.002413(    36)     15  -0.000056(    54)     0
 -----------------------------------------------------------------------------------------------
 Internal  Forces:  Max     0.015279639 RMS     0.005030507

 GradGradGradGradGradGradGradGradGradGradGradGradGradGradGradGradGradGrad
 Berny optimization.
 Search for a local minimum.
 Step number   4 out of a maximum of  100
 All quantities printed in internal units (Hartrees-Bohrs-Radians)
 Update second derivatives using D2CorN and points    4
 The second derivative matrix:
                          rAH       dih
           rAH          0.01881
           dih         -0.00256   0.00002
 ITU=  0  1  1
     Eigenvalues ---   -0.00033   0.01915
 RFO step:  Lambda=-4.13457531D-04 EMin=-3.26241035D-04
 Quartic linear search produced a step of -0.27591.
 Maximum step size (   0.849) exceeded in Quadratic search.
    -- Step size scaled by   0.848
 Variable       Old X    -DE/DX   Delta X   Delta X   Delta X     New X
                                 (Linear)    (Quad)   (Total)
   rAH        5.62212  -0.00019  -0.29549  -0.10051  -0.39600   5.22612
   dih        1.85604  -0.00003  -0.33208  -0.84255  -1.17464   0.68140
         Item               Value     Threshold  Converged?
 Maximum Force            0.000188     0.000450     YES
 RMS     Force            0.000135     0.000300     YES
 Maximum Displacement     1.174638     0.001800     NO 
 RMS     Displacement     0.876525     0.001200     NO 
 Predicted change in Energy=-1.840412D-04
 GradGradGradGradGradGradGradGradGradGradGradGradGradGradGradGradGradGrad

 ---------------------------------------------------------------------------------------------------
                            Z-MATRIX (ANGSTROMS AND DEGREES)
   CD    Cent   Atom    N1       Length/X        N2       Alpha/Y        N3        Beta/Z          J
 ---------------------------------------------------------------------------------------------------
      1      1  N        0   0.844000          0.456000          0.923000
      2      2  H        0   1.372000          0.495000          1.798000
      3      3  C        0   1.643000          1.125000         -0.113000
      4      4  H        0   2.000000          2.097000          0.243000
      5      5  H        0   0.987000          1.307000         -0.971000
      6      6  C        0   2.779000          0.153000         -0.504000
      7      7  H        0   3.689000          0.384000          0.059000
      8      8  H        0   3.031000          0.222000         -1.566000
      9      9  C        0   2.231000         -1.240000         -0.112000
     10     10  H        0   2.866000         -1.707000          0.647000
     11     11  H        0   2.185000         -1.928000         -0.962000
     12     12  C        0   0.830000         -0.941000          0.469000
     13     13  H        0   0.542000         -1.609000          1.286000
     14     14  H        0   0.068000         -1.027000         -0.314000
     15         X       10   1.000000(    14)      9   90.000(    30)     12   39.041(    45)      0
     16     15  O       10   2.765545(    15)     15   90.000(    31)      9  180.000(    46)      0
     17     16  H       16   0.957200(    16)     10  127.740(    32)     15    0.000(    47)      0
     18     17  H       16   0.957200(    17)     10  127.740(    33)     15  180.000(    48)      0
 ---------------------------------------------------------------------------------------------------
                         Z-Matrix orientation:                         
 ---------------------------------------------------------------------
 Center     Atomic      Atomic             Coordinates (Angstroms)
 Number     Number       Type             X           Y           Z
 ---------------------------------------------------------------------
      1          7           0        0.844000    0.456000    0.923000
      2          1           0        1.372000    0.495000    1.798000
      3          6           0        1.643000    1.125000   -0.113000
      4          1           0        2.000000    2.097000    0.243000
      5          1           0        0.987000    1.307000   -0.971000
      6          6           0        2.779000    0.153000   -0.504000
      7          1           0        3.689000    0.384000    0.059000
      8          1           0        3.031000    0.222000   -1.566000
      9          6           0        2.231000   -1.240000   -0.112000
     10          1           0        2.866000   -1.707000    0.647000
     11          1           0        2.185000   -1.928000   -0.962000
     12          6           0        0.830000   -0.941000    0.469000
[...]
                                 (Linear)    (Quad)   (Total)
   rAH        5.40300  -0.00000  -0.00000  -0.00060  -0.00061   5.40239
   dih        0.52681  -0.00000  -0.00772   0.00146  -0.00626   0.52055
         Item               Value     Threshold  Converged?
 Maximum Force            0.000001     0.000450     YES
 RMS     Force            0.000001     0.000300     YES
 Maximum Displacement     0.006263     0.001800     NO 
 RMS     Displacement     0.004449     0.001200     NO 
 Predicted change in Energy=-4.472774D-09
 Optimization completed on the basis of negligible forces.
    -- Stationary point found.
                       ----------------------------
                       !   Optimized Parameters   !
                       ! (Angstroms and Degrees)  !
 ----------------------                            ----------------------
 !      Name          Value   Derivative information (Atomic Units)     !
 ------------------------------------------------------------------------
 !       rAH         2.8591   -DE/DX =    0.0                           !
 !       dih        30.1841   -DE/DX =    0.0                           !
 ------------------------------------------------------------------------
 GradGradGradGradGradGradGradGradGradGradGradGradGradGradGradGradGradGrad

 ---------------------------------------------------------------------------------------------------
                            Z-MATRIX (ANGSTROMS AND DEGREES)
   CD    Cent   Atom    N1       Length/X        N2       Alpha/Y        N3        Beta/Z          J
 ---------------------------------------------------------------------------------------------------
      1      1  N        0   0.844000          0.456000          0.923000
      2      2  H        0   1.372000          0.495000          1.798000
      3      3  C        0   1.643000          1.125000         -0.113000
      4      4  H        0   2.000000          2.097000          0.243000
      5      5  H        0   0.987000          1.307000         -0.971000
      6      6  C        0   2.779000          0.153000         -0.504000
      7      7  H        0   3.689000          0.384000          0.059000
      8      8  H        0   3.031000          0.222000         -1.566000
      9      9  C        0   2.231000         -1.240000         -0.112000
     10     10  H        0   2.866000         -1.707000          0.647000
     11     11  H        0   2.185000         -1.928000         -0.962000
     12     12  C        0   0.830000         -0.941000          0.469000
     13     13  H        0   0.542000         -1.609000          1.286000
     14     14  H        0   0.068000         -1.027000         -0.314000
     15         X       10   1.000000(    14)      9   90.000(    30)     12   30.184(    45)      0
     16     15  O       10   2.859144(    15)     15   90.000(    31)      9  180.000(    46)      0
     17     16  H       16   0.957200(    16)     10  127.740(    32)     15    0.000(    47)      0
     18     17  H       16   0.957200(    17)     10  127.740(    33)     15  180.000(    48)      0
 ---------------------------------------------------------------------------------------------------
                         Z-Matrix orientation:                         
 ---------------------------------------------------------------------
 Center     Atomic      Atomic             Coordinates (Angstroms)
 Number     Number       Type             X           Y           Z
 ---------------------------------------------------------------------
      1          7           0        0.844000    0.456000    0.923000
      2          1           0        1.372000    0.495000    1.798000
      3          6           0        1.643000    1.125000   -0.113000
      4          1           0        2.000000    2.097000    0.243000
      5          1           0        0.987000    1.307000   -0.971000
      6          6           0        2.779000    0.153000   -0.504000
      7          1           0        3.689000    0.384000    0.059000
      8          1           0        3.031000    0.222000   -1.566000
      9          6           0        2.231000   -1.240000   -0.112000
     10          1           0        2.866000   -1.707000    0.647000
     11          1           0        2.185000   -1.928000   -0.962000
     12          6           0        0.830000   -0.941000    0.469000
     13          1           0        0.542000   -1.609000    1.286000
     14          1           0        0.068000   -1.027000   -0.314000
     15         -1           0        2.058554   -2.119567    1.068686
     16          8           0        4.525170   -2.927209    2.630166
     17          1           0        4.253963   -3.489541    3.355742
     18          1           0        5.476356   -2.864955    2.717352
 ---------------------------------------------------------------------
                    Distance matrix (angstroms):
                    1          2          3          4          5
     1  N    0.000000
     2  H    1.022707   0.000000
     3  C    1.469441   2.030335   0.000000
     4  H    2.119343   2.319227   1.094974   0.000000
     5  H    2.081318   2.911173   1.095274   1.767502   0.000000
     6  C    2.423296   2.719525   1.545368   2.223508   2.181987
     7  H    2.974173   2.899126   2.182838   2.412664   3.035397
     8  H    3.321573   3.760759   2.202989   2.801975   2.389390
     9  C    2.423099   2.719597   2.437000   3.363771   2.961862
    10  H    2.973757   2.899248   3.177035   3.922192   3.902917
    11  H    3.321891   3.761582   3.214868   4.205577   3.449712
    12  C    1.468986   2.030296   2.295223   3.263345   2.674276
    13  H    2.118301   2.319021   3.262539   4.116801   3.714180
    14  H    2.081258   2.911605   2.674347   3.715138   2.593023
    15  X    2.851300   2.799860   3.477971   4.297048   4.129153
    16  O    5.283137   4.727208   5.679108   6.108823   6.589049
    17  H    5.754422   5.158376   6.335873   6.780778   7.238823
    18  H    5.975548   5.383331   6.214922   6.544347   7.152865
                    6          7          8          9         10
     6  C    0.000000
     7  H    1.094728   0.000000
     8  H    1.093668   1.760634   0.000000
     9  C    1.547390   2.189151   2.211687   0.000000
    10  H    2.189057   2.322790   2.940346   1.094255   0.000000
    11  H    2.212049   2.941054   2.388102   1.094514   1.761103
    12  C    2.437656   3.177673   3.215306   1.545886   2.182598
    13  H    3.363467   3.921886   4.204948   2.223350   2.412240
    14  H    2.962773   3.904061   3.450634   2.182829   3.035577
    15  X    2.856037   3.153675   3.656523   1.482361   1.000000
    16  O    4.728614   4.274831   5.455078   3.953399   2.859144
    17  H    5.508288   5.117813   6.284483   4.601962   3.527206
    18  H    5.173093   4.562586   5.818605   4.601962   3.527206
                   11         12         13         14         15
    11  H    0.000000
    12  C    2.204077   0.000000
    13  H    2.802626   1.093918   0.000000
    14  H    2.390271   1.095960   1.767314   0.000000
    15  X    2.043617   1.804990   1.614881   2.658539   0.000000
    16  O    4.402099   4.719105   4.405690   5.669680   3.028977
    17  H    5.036062   5.152850   4.647466   6.087151   3.453589
    18  H    5.024793   5.508659   5.289052   6.466645   3.867180
                   16         17         18
    16  O    0.000000
    17  H    0.957200   0.000000
    18  H    0.957200   1.513901   0.000000
 Stoichiometry    C4H11NO
 Framework group  C1[X(C4H11NO)]
 Deg. of freedom    45
 Full point group                 C1      NOp   1
 Largest Abelian subgroup         C1      NOp   1
 Largest concise Abelian subgroup C1      NOp   1
                         Standard orientation:                         
 ---------------------------------------------------------------------
 Center     Atomic      Atomic             Coordinates (Angstroms)
 Number     Number       Type             X           Y           Z
 ---------------------------------------------------------------------
      1          7           0        1.441177   -0.877666   -0.736317
      2          1           0        0.738295   -0.878701   -1.479207
      3          6           0        1.907101    0.504988   -0.561841
      4          1           0        2.163085    0.950598   -1.528729
      5          1           0        2.821303    0.472773    0.040506
      6          6           0        0.793630    1.263858    0.194770
      7          1           0        0.142084    1.788329   -0.511522
      8          1           0        1.199978    2.015538    0.877388
      9          6           0        0.015840    0.148382    0.933130
     10          1           0       -1.024995    0.113798    0.597183
     11          1           0        0.000122    0.294228    2.017769
     12          6           0        0.753388   -1.149906    0.532837
     13          1           0        0.093812   -2.017176    0.435572
     14          1           0        1.518484   -1.396974    1.277629
     15          8           0       -3.744560    0.023436   -0.280601
     16          1           0       -4.301073   -0.748290   -0.385312
     17          1           0       -4.302608    0.758128   -0.535632
 ---------------------------------------------------------------------
 Rotational constants (GHZ):           4.8168160           1.2445953           1.1682946

 **********************************************************************

            Population analysis using the SCF density.

 **********************************************************************

 Orbital symmetries:
       Occupied  (A) (A) (A) (A) (A) (A) (A) (A) (A) (A) (A) (A)
                 (A) (A) (A) (A) (A) (A) (A) (A) (A) (A) (A) (A)
                 (A)
       Virtual   (A) (A) (A) (A) (A) (A) (A) (A) (A) (A) (A) (A)
                 (A) (A) (A) (A) (A) (A) (A) (A) (A) (A) (A) (A)
                 (A) (A) (A) (A) (A) (A) (A) (A) (A) (A) (A) (A)
                 (A) (A) (A) (A) (A) (A) (A) (A) (A) (A) (A) (A)
                 (A) (A) (A) (A) (A) (A) (A) (A) (A) (A) (A) (A)
                 (A) (A) (A) (A) (A) (A) (A) (A) (A) (A) (A) (A)
                 (A) (A) (A) (A) (A) (A) (A) (A) (A) (A) (A) (A)
                 (A) (A) (A)
 The electronic state is 1-A.
 Alpha  occ. eigenvalues --  -20.56893 -15.53154 -11.23347 -11.23145 -11.20773
 Alpha  occ. eigenvalues --  -11.20291  -1.34983  -1.20686  -1.00744  -0.95863
 Alpha  occ. eigenvalues --   -0.80413  -0.77176  -0.71497  -0.66517  -0.62598
 Alpha  occ. eigenvalues --   -0.58315  -0.57622  -0.57156  -0.50619  -0.49670
 Alpha  occ. eigenvalues --   -0.48281  -0.46834  -0.46457  -0.44439  -0.36330
 Alpha virt. eigenvalues --    0.19825   0.22837   0.25839   0.29665   0.29940
 Alpha virt. eigenvalues --    0.30634   0.31038   0.33452   0.34803   0.35720
 Alpha virt. eigenvalues --    0.37624   0.38761   0.42268   0.42723   0.49671
 Alpha virt. eigenvalues --    0.53474   0.73866   0.77393   0.77566   0.80804
 Alpha virt. eigenvalues --    0.81535   0.84786   0.91471   0.93173   0.93588
 Alpha virt. eigenvalues --    0.96067   1.01453   1.02745   1.03551   1.06757
 Alpha virt. eigenvalues --    1.10488   1.11948   1.13738   1.15047   1.15627
 Alpha virt. eigenvalues --    1.16130   1.18236   1.19704   1.20586   1.21975
 Alpha virt. eigenvalues --    1.24070   1.24644   1.24964   1.37296   1.38098
 Alpha virt. eigenvalues --    1.43114   1.50748   1.54774   1.60382   1.61134
 Alpha virt. eigenvalues --    1.70294   1.92139   2.01723   2.02552   2.03925
 Alpha virt. eigenvalues --    2.05930   2.09815   2.13391   2.14613   2.20953
 Alpha virt. eigenvalues --    2.23797   2.30152   2.32977   2.36091   2.43365
 Alpha virt. eigenvalues --    2.44323   2.44462   2.52142   2.58345   2.60294
 Alpha virt. eigenvalues --    2.61824   2.72619   2.74617   2.82713   2.91268
 Alpha virt. eigenvalues --    2.93907   2.96569   2.98816   3.00085   3.03923
 Alpha virt. eigenvalues --    3.25109   3.99206   4.35960   4.62911   4.69580
 Alpha virt. eigenvalues --    4.87289   5.06408
          Condensed to atoms (all electrons):
               1          2          3          4          5          6
     1  N    7.062792   0.327594   0.295224  -0.033609  -0.047818  -0.085412
     2  H    0.327594   0.432032  -0.042216  -0.005404   0.005699  -0.000675
     3  C    0.295224  -0.042216   4.975899   0.403175   0.405548   0.334388
     4  H   -0.033609  -0.005404   0.403175   0.527085  -0.026973  -0.035570
     5  H   -0.047818   0.005699   0.405548  -0.026973   0.550072  -0.053891
     6  C   -0.085412  -0.000675   0.334388  -0.035570  -0.053891   5.203765
     7  H    0.002639   0.000941  -0.038242  -0.004246   0.003862   0.396116
     8  H    0.004427  -0.000028  -0.032892   0.001382  -0.002582   0.390817
     9  C   -0.084136  -0.000604  -0.060684   0.003804  -0.000382   0.319692
    10  H    0.002372   0.000882   0.002882  -0.000147  -0.000009  -0.035163
    11  H    0.004462  -0.000028   0.003118  -0.000066   0.000166  -0.034712
    12  C    0.293012  -0.042251  -0.095451   0.006190  -0.001934  -0.061237
    13  H   -0.033349  -0.005410   0.006151  -0.000115  -0.000173   0.003838
    14  H   -0.048080   0.005721  -0.001943  -0.000175   0.003499  -0.000294
    15  O   -0.000000   0.000001  -0.000000   0.000000  -0.000000   0.000016
    16  H    0.000000   0.000000   0.000000  -0.000000  -0.000000  -0.000001
    17  H    0.000000   0.000000   0.000000  -0.000000  -0.000000  -0.000003
               7          8          9         10         11         12
     1  N    0.002639   0.004427  -0.084136   0.002372   0.004462   0.293012
     2  H    0.000941  -0.000028  -0.000604   0.000882  -0.000028  -0.042251
     3  C   -0.038242  -0.032892  -0.060684   0.002882   0.003118  -0.095451
     4  H   -0.004246   0.001382   0.003804  -0.000147  -0.000066   0.006190
     5  H    0.003862  -0.002582  -0.000382  -0.000009   0.000166  -0.001934
     6  C    0.396116   0.390817   0.319692  -0.035163  -0.034712  -0.061237
     7  H    0.542945  -0.026489  -0.038391  -0.005505   0.002618   0.003213
     8  H   -0.026489   0.534835  -0.033366   0.002342  -0.003758   0.003038
     9  C   -0.038391  -0.033366   5.229077   0.394893   0.389955   0.333476
    10  H   -0.005505   0.002342   0.394893   0.487753  -0.023300  -0.035008
    11  H    0.002618  -0.003758   0.389955  -0.023300   0.536546  -0.033702
    12  C    0.003213   0.003038   0.333476  -0.035008  -0.033702   4.975886
    13  H   -0.000162  -0.000064  -0.035253  -0.003742   0.001350   0.403650
    14  H   -0.000013   0.000162  -0.054143   0.003486  -0.002520   0.405289
    15  O    0.000007  -0.000000  -0.001430   0.006292   0.000004   0.000016
    16  H   -0.000000   0.000000   0.000062  -0.000187  -0.000001  -0.000002
    17  H    0.000000   0.000000   0.000063  -0.000190  -0.000001  -0.000001
              13         14         15         16         17
     1  N   -0.033349  -0.048080  -0.000000   0.000000   0.000000
     2  H   -0.005410   0.005721   0.000001   0.000000   0.000000
     3  C    0.006151  -0.001943  -0.000000   0.000000   0.000000
     4  H   -0.000115  -0.000175   0.000000  -0.000000  -0.000000
     5  H   -0.000173   0.003499  -0.000000  -0.000000  -0.000000
     6  C    0.003838  -0.000294   0.000016  -0.000001  -0.000003
     7  H   -0.000162  -0.000013   0.000007  -0.000000   0.000000
     8  H   -0.000064   0.000162  -0.000000   0.000000   0.000000
     9  C   -0.035253  -0.054143  -0.001430   0.000062   0.000063
    10  H   -0.003742   0.003486   0.006292  -0.000187  -0.000190
    11  H    0.001350  -0.002520   0.000004  -0.000001  -0.000001
    12  C    0.403650   0.405289   0.000016  -0.000002  -0.000001
    13  H    0.523802  -0.027141   0.000002   0.000000  -0.000000
    14  H   -0.027141   0.553615  -0.000000   0.000000   0.000000
    15  O    0.000002  -0.000000   8.331128   0.264915   0.264972
    16  H    0.000000   0.000000   0.264915   0.317570  -0.018276
    17  H   -0.000000   0.000000   0.264972  -0.018276   0.317441
 Mulliken charges:
               1
     1  N   -0.660119
     2  H    0.323745
     3  C   -0.154959
     4  H    0.164668
     5  H    0.164915
     6  C   -0.341674
     7  H    0.160708
     8  H    0.162175
     9  C   -0.362633
    10  H    0.202348
    11  H    0.159867
    12  C   -0.154185
    13  H    0.166615
    14  H    0.162536
    15  O   -0.865922
    16  H    0.435920
    17  H    0.435993
 Sum of Mulliken charges =  -0.00000
 Mulliken charges with hydrogens summed into heavy atoms:
               1
     1  N   -0.336374
     3  C    0.174625
     6  C   -0.018791
     9  C   -0.000418
    12  C    0.174967
    15  O    0.005991
 Electronic spatial extent (au):  <R**2>=           1066.7186
 Charge=              0.0000 electrons
 Dipole moment (field-independent basis, Debye):
    X=             -3.6412    Y=              0.9098    Z=             -0.4654  Tot=              3.7819
 Quadrupole moment (field-independent basis, Debye-Ang):
   XX=            -25.1209   YY=            -38.7386   ZZ=            -38.2598
   XY=              3.9495   XZ=              5.9444   YZ=             -1.6986
 Traceless Quadrupole moment (field-independent basis, Debye-Ang):
   XX=              8.9188   YY=             -4.6988   ZZ=             -4.2201
   XY=              3.9495   XZ=              5.9444   YZ=             -1.6986
 Octapole moment (field-independent basis, Debye-Ang**2):
  XXX=           -128.9790  YYY=              0.1802  ZZZ=             -5.3764  XYY=            -22.0517
  XXY=              6.3805  XXZ=            -14.7648  XZZ=             -6.8835  YZZ=              0.8758
  YYZ=             -0.3720  XYZ=             -2.5263
 Hexadecapole moment (field-independent basis, Debye-Ang**3):
 XXXX=           -378.2656 YYYY=           -238.1311 ZZZZ=           -150.4672 XXXY=             18.0891
 XXXZ=            107.9204 YYYX=              6.9479 YYYZ=             -2.3708 ZZZX=              6.2590
 ZZZY=              0.5328 XXYY=           -156.9928 XXZZ=           -177.2049 YYZZ=            -65.4650
 XXYZ=            -13.4269 YYXZ=             12.9391 ZZXY=              2.5317
 N-N= 2.424496211238D+02 E-N=-1.157778919005D+03  KE= 2.866452918630D+02
 1\1\GINC-C402-052\FOpt\RHF\6-31G(d)\C4H11N1O1\TG455515\31-Mar-2021\1\\
 # HF/6-31G* Opt=(Z-matrix,MaxCycles=100) Geom=PrintInputOrient\\<qmtoo
 l> simtype="Geometry optimization" </qmtool> PRLD-DON-H41\\0,1\N,0,0.8
 439999819,0.4560000002,0.9229999781\H,0,1.371999979,0.4950000048,1.797
 9999781\C,0,1.6430000067,1.125,-0.112999998\H,0,2.,2.0969998837,0.2430
 000007\H,0,0.9869999886,1.307000041,-0.9710000157\C,0,2.7790000439,0.1
 529999971,-0.5040000081\H,0,3.6889998913,0.3840000033,0.0590000004\H,0
 ,3.0309998989,0.2220000029,-1.5659999847\C,0,2.2309999466,-1.240000009
 5,-0.1120000035\H,0,2.8659999371,-1.7070000172,0.6470000148\H,0,2.1849
 999428,-1.9279999733,-0.9620000124\C,0,0.8299999833,-0.9409999847,0.46
 90000117\H,0,0.5419999957,-1.6089999676,1.2860000134\H,0,0.0680000037,
 -1.0269999504,-0.3140000105\X,10,1.,9,90.,12,dih,0\O,10,rAH,15,90.,9,1
 80.,0\H,16,0.9572,10,127.74,15,0.,0\H,16,0.9572,10,127.74,15,180.,0\\r
 AH=2.85914383\dih=30.18408415\\Version=ES64L-G16RevA.03\State=1-A\HF=-
 287.1551766\RMSD=5.688e-09\RMSF=5.562e-03\Dipole=1.1523504,-0.6891067,
 0.6411604\Quadrupole=-1.6135737,-0.9577839,2.5713577,-0.8850463,5.4514
 146,-5.2144177\PG=C01 [X(C4H11N1O1)]\\@


 MISERY NO LONGER LOVES COMPANY.  NOWADAYS IT INSISTS ON IT.

                                              -- BAKER'S LAW
 Job cpu time:       0 days  0 hours  3 minutes 41.1 seconds.
 Elapsed time:       0 days  0 hours  3 minutes 37.1 seconds.
 File lengths (MBytes):  RWF=     10 Int=      0 D2E=      0 Chk=      2 Scr=      1
 Normal termination of Gaussian 16 at Wed Mar 31 17:11:05 2021.
