 Entering Gaussian System, Link 0=g16
 Initial command:
 /home1/apps/gaussian/16rA.03/g16/l1.exe "/tmp/Gau-54967.inp" -scrdir="/tmp/"
 Entering Link 1 = /home1/apps/gaussian/16rA.03/g16/l1.exe PID=     54968.
  
 Copyright (c) 1988,1990,1992,1993,1995,1998,2003,2009,2016,
            Gaussian, Inc.  All Rights Reserved.
  
 This is part of the Gaussian(R) 16 program.  It is based on
 the Gaussian(R) 09 system (copyright 2009, Gaussian, Inc.),
 the Gaussian(R) 03 system (copyright 2003, Gaussian, Inc.),
 the Gaussian(R) 98 system (copyright 1998, Gaussian, Inc.),
 the Gaussian(R) 94 system (copyright 1995, Gaussian, Inc.),
 the Gaussian 92(TM) system (copyright 1992, Gaussian, Inc.),
 the Gaussian 90(TM) system (copyright 1990, Gaussian, Inc.),
 the Gaussian 88(TM) system (copyright 1988, Gaussian, Inc.),
 the Gaussian 86(TM) system (copyright 1986, Carnegie Mellon
 University), and the Gaussian 82(TM) system (copyright 1983,
 Carnegie Mellon University). Gaussian is a federally registered
 trademark of Gaussian, Inc.
  
 This software contains proprietary and confidential information,
 including trade secrets, belonging to Gaussian, Inc.
  
 This software is provided under written license and may be
 used, copied, transmitted, or stored only in accord with that
 written license.
  
 The following legend is applicable only to US Government
 contracts under FAR:
  
                    RESTRICTED RIGHTS LEGEND
  
 Use, reproduction and disclosure by the US Government is
 subject to restrictions as set forth in subparagraphs (a)
 and (c) of the Commercial Computer Software - Restricted
 Rights clause in FAR 52.227-19.
  
 Gaussian, Inc.
 340 Quinnipiac St., Bldg. 40, Wallingford CT 06492
  
  
 ---------------------------------------------------------------
 Warning -- This program may not be used in any manner that
 competes with the business of Gaussian, Inc. or will provide
 assistance to any competitor of Gaussian, Inc.  The licensee
 of this program is prohibited from giving any competitor of
 Gaussian, Inc. access to this program.  By using this program,
 the user acknowledges that Gaussian, Inc. is engaged in the
 business of creating and licensing software in the field of
 computational chemistry and represents and warrants to the
 licensee that it is not a competitor of Gaussian, Inc. and that
 it will not use this program in any manner prohibited above.
 ---------------------------------------------------------------
  

 Cite this work as:
 Gaussian 16, Revision A.03,
 M. J. Frisch, G. W. Trucks, H. B. Schlegel, G. E. Scuseria, 
 M. A. Robb, J. R. Cheeseman, G. Scalmani, V. Barone, 
 G. A. Petersson, H. Nakatsuji, X. Li, M. Caricato, A. V. Marenich, 
 J. Bloino, B. G. Janesko, R. Gomperts, B. Mennucci, H. P. Hratchian, 
 J. V. Ortiz, A. F. Izmaylov, J. L. Sonnenberg, D. Williams-Young, 
 F. Ding, F. Lipparini, F. Egidi, J. Goings, B. Peng, A. Petrone, 
 T. Henderson, D. Ranasinghe, V. G. Zakrzewski, J. Gao, N. Rega, 
 G. Zheng, W. Liang, M. Hada, M. Ehara, K. Toyota, R. Fukuda, 
 J. Hasegawa, M. Ishida, T. Nakajima, Y. Honda, O. Kitao, H. Nakai, 
 T. Vreven, K. Throssell, J. A. Montgomery, Jr., J. E. Peralta, 
 F. Ogliaro, M. J. Bearpark, J. J. Heyd, E. N. Brothers, K. N. Kudin, 
 V. N. Staroverov, T. A. Keith, R. Kobayashi, J. Normand, 
 K. Raghavachari, A. P. Rendell, J. C. Burant, S. S. Iyengar, 
 J. Tomasi, M. Cossi, J. M. Millam, M. Klene, C. Adamo, R. Cammi, 
 J. W. Ochterski, R. L. Martin, K. Morokuma, O. Farkas, 
 J. B. Foresman, and D. J. Fox, Gaussian, Inc., Wallingford CT, 2016.
 
 ******************************************
 Gaussian 16:  ES64L-G16RevA.03 25-Dec-2016
                31-Mar-2021 
 ******************************************
 %chk=PRLD-DON-H21.chk
 %nproc=1
 Will use up to    1 processors via shared memory.
 %mem=1GB
 --------------------------------------------------------------
 # HF/6-31G* Opt=(Z-matrix,MaxCycles=100) Geom=PrintInputOrient
 --------------------------------------------------------------
 1/6=100,10=7,18=40,38=1/1,3;
 2/9=2000,12=2,17=6,18=5,29=3,40=1/2;
 3/5=1,6=6,7=1,11=9,25=1,30=1,71=1/1,2,3;
 4//1;
 5/5=2,38=5/2;
 6/7=2,8=2,9=2,10=2,28=1/1;
 7/29=1/1,2,3,16;
 1/6=100,10=7,18=40/3(2);
 2/9=2000,29=3/2;
 99//99;
 2/9=2000,29=3/2;
 3/5=1,6=6,7=1,11=9,25=1,30=1,71=1/1,2,3;
 4/5=5,16=3,69=1/1;
 5/5=2,38=5/2;
 7//1,2,3,16;
 1/6=100,18=40/3(-5);
 2/9=2000,29=3/2;
 6/7=2,8=2,9=2,10=2,19=2,28=1/1;
 99/9=1/99;
 ---------------------------------------------------------------
 <qmtool> simtype="Geometry optimization" </qmtool> PRLD-DON-H21
 ---------------------------------------------------------------
 Symbolic Z-matrix:
 Charge =  0 Multiplicity = 1
 N1                    0.844     0.456     0.923 
 H2                    1.372     0.495     1.798 
 C3                    1.643     1.125    -0.113 
 H4                    2.        2.097     0.243 
 H5                    0.987     1.307    -0.971 
 C6                    2.779     0.153    -0.504 
 H7                    3.689     0.384     0.059 
 H8                    3.031     0.222    -1.566 
 C9                    2.231    -1.24     -0.112 
 H10                   2.866    -1.707     0.647 
 H11                   2.185    -1.928    -0.962 
 C12                   0.83     -0.941     0.469 
 H13                   0.542    -1.609     1.286 
 H14                   0.068    -1.027    -0.314 
 x                    H4    1.       C3    90.      C6   dih      0
 Ow                   H4   rAH      x     90.      C3    180.     0
 H1w                  Ow    0.9572   H4    127.74   x     0.       0
 H2w                  Ow    0.9572   H4    127.74   x     180.     0
       Variables:
  rAH                   2.                       
  dih                   0.                       
 

 GradGradGradGradGradGradGradGradGradGradGradGradGradGradGradGradGradGrad
 Berny optimization.
 Initialization pass.
                       ----------------------------
                       !    Initial Parameters    !
                       ! (Angstroms and Degrees)  !
 ----------------------                            ----------------------
 !      Name          Value   Derivative information (Atomic Units)     !
 ------------------------------------------------------------------------
 !       rAH         2.0      estimate D2E/DX2                          !
 !       dih         0.0      estimate D2E/DX2                          !
 ------------------------------------------------------------------------
 Trust Radius=3.00D-01 FncErr=1.00D-07 GrdErr=1.00D-07 EigMax=2.50D+02 EigMin=1.00D-04
 Number of steps in this run=    100 maximum allowed number of steps=    100.
 GradGradGradGradGradGradGradGradGradGradGradGradGradGradGradGradGradGrad

 ---------------------------------------------------------------------------------------------------
                            Z-MATRIX (ANGSTROMS AND DEGREES)
   CD    Cent   Atom    N1       Length/X        N2       Alpha/Y        N3        Beta/Z          J
 ---------------------------------------------------------------------------------------------------
      1      1  N        0   0.844000          0.456000          0.923000
      2      2  H        0   1.372000          0.495000          1.798000
      3      3  C        0   1.643000          1.125000         -0.113000
      4      4  H        0   2.000000          2.097000          0.243000
      5      5  H        0   0.987000          1.307000         -0.971000
      6      6  C        0   2.779000          0.153000         -0.504000
      7      7  H        0   3.689000          0.384000          0.059000
      8      8  H        0   3.031000          0.222000         -1.566000
      9      9  C        0   2.231000         -1.240000         -0.112000
     10     10  H        0   2.866000         -1.707000          0.647000
     11     11  H        0   2.185000         -1.928000         -0.962000
     12     12  C        0   0.830000         -0.941000          0.469000
     13     13  H        0   0.542000         -1.609000          1.286000
     14     14  H        0   0.068000         -1.027000         -0.314000
     15         X        4   1.000000(    14)      3   90.000(    30)      6    0.000(    45)      0
     16     15  O        4   2.000000(    15)     15   90.000(    31)      3  180.000(    46)      0
     17     16  H       16   0.957200(    16)      4  127.740(    32)     15    0.000(    47)      0
     18     17  H       16   0.957200(    17)      4  127.740(    33)     15  180.000(    48)      0
 ---------------------------------------------------------------------------------------------------
                         Z-Matrix orientation:                         
 ---------------------------------------------------------------------
 Center     Atomic      Atomic             Coordinates (Angstroms)
 Number     Number       Type             X           Y           Z
 ---------------------------------------------------------------------
      1          7           0        0.844000    0.456000    0.923000
      2          1           0        1.372000    0.495000    1.798000
      3          6           0        1.643000    1.125000   -0.113000
      4          1           0        2.000000    2.097000    0.243000
      5          1           0        0.987000    1.307000   -0.971000
      6          6           0        2.779000    0.153000   -0.504000
      7          1           0        3.689000    0.384000    0.059000
      8          1           0        3.031000    0.222000   -1.566000
      9          6           0        2.231000   -1.240000   -0.112000
     10          1           0        2.866000   -1.707000    0.647000
     11          1           0        2.185000   -1.928000   -0.962000
     12          6           0        0.830000   -0.941000    0.469000
     13          1           0        0.542000   -1.609000    1.286000
     14          1           0        0.068000   -1.027000   -0.314000
     15         -1           0        2.945103    1.798919    0.109104
     16          8           0        2.652070    3.872384    0.893244
     17          1           0        3.558484    4.166834    0.982374
     18          1           0        2.127692    4.618099    1.185079
 ---------------------------------------------------------------------
                    Distance matrix (angstroms):
                    1          2          3          4          5
     1  N    0.000000
     2  H    1.022707   0.000000
     3  C    1.469441   2.030335   0.000000
     4  H    2.119343   2.319227   1.094974   0.000000
     5  H    2.081318   2.911173   1.095274   1.767502   0.000000
     6  C    2.423296   2.719525   1.545368   2.223508   2.181987
     7  H    2.974173   2.899126   2.182838   2.412664   3.035397
     8  H    3.321573   3.760759   2.202989   2.801975   2.389390
     9  C    2.423099   2.719597   2.437000   3.363771   2.961862
    10  H    2.973757   2.899248   3.177035   3.922192   3.902917
    11  H    3.321891   3.761582   3.214868   4.205577   3.449712
    12  C    1.468986   2.030296   2.295223   3.263345   2.674276
    13  H    2.118301   2.319021   3.262539   4.116801   3.714180
    14  H    2.081258   2.911605   2.674347   3.715138   2.593023
    15  X    2.623069   2.650892   1.482892   1.000000   2.289711
    16  O    3.865447   3.723424   3.094974   2.000000   3.581767
    17  H    4.598069   4.350670   3.757882   2.694394   4.313566
    18  H    4.363442   4.236353   3.757882   2.694394   4.112570
                    6          7          8          9         10
     6  C    0.000000
     7  H    1.094728   0.000000
     8  H    1.093668   1.760634   0.000000
     9  C    1.547390   2.189151   2.211687   0.000000
    10  H    2.189057   2.322790   2.940346   1.094255   0.000000
    11  H    2.212049   2.941054   2.388102   1.094514   1.761103
    12  C    2.437656   3.177673   3.215306   1.545886   2.182598
    13  H    3.363467   3.921886   4.204948   2.223350   2.412240
    14  H    2.962773   3.904061   3.450634   2.182829   3.035577
    15  X    1.764238   1.599340   2.302178   3.129514   3.547824
    16  O    3.975200   3.733632   4.417779   5.227263   5.588911
    17  H    4.350605   3.896086   4.725904   5.673951   5.924014
    18  H    4.818122   4.651165   5.264038   6.000868   6.390736
                   11         12         13         14         15
    11  H    0.000000
    12  C    2.204077   0.000000
    13  H    2.802626   1.093918   0.000000
    14  H    2.390271   1.095960   1.767314   0.000000
    15  X    3.951575   3.479991   4.332886   4.054942   0.000000
    16  O    6.107744   5.164164   5.886614   5.669111   2.236068
    17  H    6.543245   5.813618   6.523161   6.390616   2.597279
    18  H    6.889459   5.753291   6.426614   6.193280   3.126286
                   16         17         18
    16  O    0.000000
    17  H    0.957200   0.000000
    18  H    0.957200   1.513901   0.000000
 Stoichiometry    C4H11NO
 Framework group  C1[X(C4H11NO)]
 Deg. of freedom    45
 Full point group                 C1      NOp   1
 Largest Abelian subgroup         C1      NOp   1
 Largest concise Abelian subgroup C1      NOp   1
                         Standard orientation:                         
 ---------------------------------------------------------------------
 Center     Atomic      Atomic             Coordinates (Angstroms)
 Number     Number       Type             X           Y           Z
 ---------------------------------------------------------------------
      1          7           0       -0.378312   -1.189080   -0.067834
      2          1           0       -0.104170   -1.214357   -1.052789
      3          6           0        0.286847   -0.035347    0.553232
      4          1           0        1.352917   -0.024375    0.303549
      5          1           0        0.202121   -0.149437    1.639247
      6          6           0       -0.471838    1.227485    0.086529
      7          1           0        0.023041    1.669495   -0.784190
      8          1           0       -0.505213    1.996837    0.863119
      9          6           0       -1.877419    0.701555   -0.290507
     10          1           0       -2.086991    0.879914   -1.349593
     11          1           0       -2.674820    1.185478    0.282145
     12          6           0       -1.797776   -0.815901   -0.006350
     13          1           0       -2.386555   -1.423703   -0.699584
     14          1           0       -2.153102   -1.031432    1.007760
     15          8           0        3.300124   -0.004335   -0.152505
     16          1           0        3.787423    0.680058   -0.611175
     17          1           0        3.953659   -0.676987    0.038971
 ---------------------------------------------------------------------
 Rotational constants (GHZ):           6.2674367           1.5331895           1.3242228
 Standard basis: 6-31G(d) (6D, 7F)
 There are   112 symmetry adapted cartesian basis functions of A   symmetry.
 There are   112 symmetry adapted basis functions of A   symmetry.
   112 basis functions,   212 primitive gaussians,   112 cartesian basis functions
    25 alpha electrons       25 beta electrons
       nuclear repulsion energy       249.6280124387 Hartrees.
 NAtoms=   17 NActive=   17 NUniq=   17 SFac= 1.00D+00 NAtFMM=   60 NAOKFM=F Big=F
 Integral buffers will be    131072 words long.
 Raffenetti 1 integral format.
 Two-electron integral symmetry is turned on.
 One-electron integrals computed using PRISM.
 NBasis=   112 RedAO= T EigKep=  3.12D-03  NBF=   112
 NBsUse=   112 1.00D-06 EigRej= -1.00D+00 NBFU=   112
 ExpMin= 1.61D-01 ExpMax= 5.48D+03 ExpMxC= 8.25D+02 IAcc=3 IRadAn=         5 AccDes= 0.00D+00
 Harris functional with IExCor=  205 and IRadAn=       5 diagonalized for initial guess.
 HarFok:  IExCor=  205 AccDes= 0.00D+00 IRadAn=         5 IDoV= 1 UseB2=F ITyADJ=14
 ICtDFT=  3500011 ScaDFX=  1.000000  1.000000  1.000000  1.000000
 FoFCou: FMM=F IPFlag=           0 FMFlag=      100000 FMFlg1=           0
         NFxFlg=           0 DoJE=T BraDBF=F KetDBF=T FulRan=T
         wScrn=  0.000000 ICntrl=       500 IOpCl=  0 I1Cent=   200000004 NGrid=           0
         NMat0=    1 NMatS0=      1 NMatT0=    0 NMatD0=    1 NMtDS0=    0 NMtDT0=    0
 Petite list used in FoFCou.
 Keep R1 ints in memory in canonical form, NReq=20923733.
 Requested convergence on RMS density matrix=1.00D-08 within 128 cycles.
 Requested convergence on MAX density matrix=1.00D-06.
 Requested convergence on             energy=1.00D-06.
 No special actions if energy rises.
 SCF Done:  E(RHF) =  -287.150948187     A.U. after   12 cycles
            NFock= 12  Conv=0.62D-08     -V/T= 2.0016

 **********************************************************************

            Population analysis using the SCF density.

 **********************************************************************

 Orbital symmetries:
       Occupied  (A) (A) (A) (A) (A) (A) (A) (A) (A) (A) (A) (A)
                 (A) (A) (A) (A) (A) (A) (A) (A) (A) (A) (A) (A)
                 (A)
       Virtual   (A) (A) (A) (A) (A) (A) (A) (A) (A) (A) (A) (A)
                 (A) (A) (A) (A) (A) (A) (A) (A) (A) (A) (A) (A)
                 (A) (A) (A) (A) (A) (A) (A) (A) (A) (A) (A) (A)
                 (A) (A) (A) (A) (A) (A) (A) (A) (A) (A) (A) (A)
                 (A) (A) (A) (A) (A) (A) (A) (A) (A) (A) (A) (A)
                 (A) (A) (A) (A) (A) (A) (A) (A) (A) (A) (A) (A)
                 (A) (A) (A) (A) (A) (A) (A) (A) (A) (A) (A) (A)
                 (A) (A) (A)
 The electronic state is 1-A.
 Alpha  occ. eigenvalues --  -20.57339 -15.52358 -11.22854 -11.21193 -11.20554
 Alpha  occ. eigenvalues --  -11.20231  -1.35587  -1.19880  -1.00408  -0.95105
 Alpha  occ. eigenvalues --   -0.79692  -0.76781  -0.72002  -0.66133  -0.62181
 Alpha  occ. eigenvalues --   -0.59345  -0.57444  -0.56342  -0.51184  -0.48474
 Alpha  occ. eigenvalues --   -0.47626  -0.46391  -0.45099  -0.44107  -0.35638
 Alpha virt. eigenvalues --    0.19753   0.23458   0.26144   0.29446   0.30063
 Alpha virt. eigenvalues --    0.30587   0.31975   0.34582   0.35336   0.37831
 Alpha virt. eigenvalues --    0.39144   0.40369   0.42895   0.46931   0.50799
 Alpha virt. eigenvalues --    0.54064   0.74683   0.77494   0.78336   0.81141
 Alpha virt. eigenvalues --    0.81762   0.85700   0.91742   0.93164   0.94055
 Alpha virt. eigenvalues --    0.96658   1.01728   1.03261   1.04102   1.11275
 Alpha virt. eigenvalues --    1.13415   1.14185   1.14666   1.15575   1.16452
 Alpha virt. eigenvalues --    1.16906   1.19775   1.21066   1.22270   1.23721
 Alpha virt. eigenvalues --    1.25134   1.25643   1.27234   1.37413   1.42299
 Alpha virt. eigenvalues --    1.51651   1.53553   1.55958   1.60942   1.63723
 Alpha virt. eigenvalues --    1.74327   1.93105   2.01956   2.02156   2.05224
 Alpha virt. eigenvalues --    2.10382   2.12684   2.15125   2.19675   2.21722
 Alpha virt. eigenvalues --    2.26972   2.31587   2.33896   2.36943   2.44150
 Alpha virt. eigenvalues --    2.45117   2.45868   2.52749   2.59016   2.60616
 Alpha virt. eigenvalues --    2.61940   2.73134   2.75529   2.83540   2.91595
 Alpha virt. eigenvalues --    2.93438   2.97454   3.00041   3.00856   3.04687
 Alpha virt. eigenvalues --    3.25992   4.09552   4.36772   4.62761   4.71358
 Alpha virt. eigenvalues --    4.92020   5.07408
          Condensed to atoms (all electrons):
               1          2          3          4          5          6
     1  N    7.066346   0.327104   0.286717  -0.028680  -0.049303  -0.084806
     2  H    0.327104   0.438954  -0.042802  -0.005187   0.005902  -0.000717
     3  C    0.286717  -0.042802   5.057688   0.402185   0.403110   0.330863
     4  H   -0.028680  -0.005187   0.402185   0.411033  -0.022095  -0.029543
     5  H   -0.049303   0.005902   0.403110  -0.022095   0.565341  -0.056215
     6  C   -0.084806  -0.000717   0.330863  -0.029543  -0.056215   5.201983
     7  H    0.002693   0.001048  -0.039042  -0.003431   0.004042   0.395226
     8  H    0.004463  -0.000033  -0.031693   0.000865  -0.002722   0.390764
     9  C   -0.086154  -0.000815  -0.061463   0.003154  -0.000312   0.322536
    10  H    0.002712   0.000985   0.003250  -0.000149  -0.000015  -0.038460
    11  H    0.004448  -0.000024   0.003062  -0.000051   0.000164  -0.033508
    12  C    0.295958  -0.043511  -0.095766   0.005265  -0.002238  -0.062806
    13  H   -0.033991  -0.005398   0.006263  -0.000077  -0.000175   0.003882
    14  H   -0.047691   0.005819  -0.001943  -0.000188   0.003514  -0.000340
    15  O    0.000144   0.000262  -0.012624  -0.002288   0.000308   0.000273
    16  H   -0.000011  -0.000008   0.000673   0.000731  -0.000015  -0.000030
    17  H   -0.000017  -0.000012   0.000676   0.000732  -0.000028  -0.000012
               7          8          9         10         11         12
     1  N    0.002693   0.004463  -0.086154   0.002712   0.004448   0.295958
     2  H    0.001048  -0.000033  -0.000815   0.000985  -0.000024  -0.043511
     3  C   -0.039042  -0.031693  -0.061463   0.003250   0.003062  -0.095766
     4  H   -0.003431   0.000865   0.003154  -0.000149  -0.000051   0.005265
     5  H    0.004042  -0.002722  -0.000312  -0.000015   0.000164  -0.002238
     6  C    0.395226   0.390764   0.322536  -0.038460  -0.033508  -0.062806
     7  H    0.555357  -0.027304  -0.039585  -0.006458   0.002739   0.003219
     8  H   -0.027304   0.538033  -0.033990   0.002689  -0.003826   0.003119
     9  C   -0.039585  -0.033990   5.207194   0.394786   0.390054   0.336420
    10  H   -0.006458   0.002689   0.394786   0.551539  -0.026699  -0.038690
    11  H    0.002739  -0.003826   0.390054  -0.026699   0.536496  -0.032654
    12  C    0.003219   0.003119   0.336420  -0.038690  -0.032654   4.974871
    13  H   -0.000165  -0.000066  -0.036074  -0.004261   0.001419   0.402781
    14  H   -0.000013   0.000173  -0.054287   0.003920  -0.002530   0.405464
    15  O    0.000236  -0.000008  -0.000004   0.000000   0.000000  -0.000006
    16  H   -0.000021   0.000002   0.000001  -0.000000  -0.000000   0.000001
    17  H   -0.000006   0.000000   0.000000  -0.000000  -0.000000   0.000001
              13         14         15         16         17
     1  N   -0.033991  -0.047691   0.000144  -0.000011  -0.000017
     2  H   -0.005398   0.005819   0.000262  -0.000008  -0.000012
     3  C    0.006263  -0.001943  -0.012624   0.000673   0.000676
     4  H   -0.000077  -0.000188  -0.002288   0.000731   0.000732
     5  H   -0.000175   0.003514   0.000308  -0.000015  -0.000028
     6  C    0.003882  -0.000340   0.000273  -0.000030  -0.000012
     7  H   -0.000165  -0.000013   0.000236  -0.000021  -0.000006
     8  H   -0.000066   0.000173  -0.000008   0.000002   0.000000
     9  C   -0.036074  -0.054287  -0.000004   0.000001   0.000000
    10  H   -0.004261   0.003920   0.000000  -0.000000  -0.000000
    11  H    0.001419  -0.002530   0.000000  -0.000000  -0.000000
    12  C    0.402781   0.405464  -0.000006   0.000001   0.000001
    13  H    0.531963  -0.027330   0.000000  -0.000000  -0.000000
    14  H   -0.027330   0.552732   0.000000  -0.000000  -0.000000
    15  O    0.000000   0.000000   8.354552   0.262671   0.263560
    16  H   -0.000000  -0.000000   0.262671   0.314592  -0.017094
    17  H   -0.000000  -0.000000   0.263560  -0.017094   0.310160
 Mulliken charges:
               1
     1  N   -0.659931
     2  H    0.318435
     3  C   -0.209154
     4  H    0.267723
     5  H    0.150735
     6  C   -0.339088
     7  H    0.151467
     8  H    0.159534
     9  C   -0.341460
    10  H    0.154852
    11  H    0.160910
    12  C   -0.151427
    13  H    0.161229
    14  H    0.162700
    15  O   -0.867076
    16  H    0.438510
    17  H    0.442040
 Sum of Mulliken charges =  -0.00000
 Mulliken charges with hydrogens summed into heavy atoms:
               1
     1  N   -0.341496
     3  C    0.209304
     6  C   -0.028087
     9  C   -0.025698
    12  C    0.172503
    15  O    0.013474
 Electronic spatial extent (au):  <R**2>=            919.5467
 Charge=             -0.0000 electrons
 Dipole moment (field-independent basis, Debye):
    X=              2.6577    Y=              1.2992    Z=             -1.2989  Tot=              3.2309
 Quadrupole moment (field-independent basis, Debye-Ang):
   XX=            -21.7424   YY=            -41.9225   ZZ=            -37.4663
   XY=              0.1004   XZ=             -2.4689   YZ=              0.5869
 Traceless Quadrupole moment (field-independent basis, Debye-Ang):
   XX=             11.9680   YY=             -8.2121   ZZ=             -3.7559
   XY=              0.1004   XZ=             -2.4689   YZ=              0.5869
 Octapole moment (field-independent basis, Debye-Ang**2):
  XXX=            105.0458  YYY=              5.1686  ZZZ=             -3.2927  XYY=             14.1669
  XXY=             -4.6024  XXZ=             -9.6195  XZZ=              6.3156  YZZ=             -1.3025
  YYZ=             -3.1466  XYZ=             -5.3624
 Hexadecapole moment (field-independent basis, Debye-Ang**3):
 XXXX=           -412.9870 YYYY=           -251.9544 ZZZZ=            -85.8288 XXXY=             -8.9364
 XXXZ=            -45.5853 YYYX=              0.8764 YYYZ=              5.6871 ZZZX=             -5.0947
 ZZZY=              1.3282 XXYY=           -146.3659 XXZZ=           -145.0821 YYZZ=            -50.5191
 XXYZ=            -13.9385 YYXZ=             -3.5521 ZZXY=              3.4280
 N-N= 2.496280124387D+02 E-N=-1.172364168863D+03  KE= 2.866852162323D+02
 Calling FoFJK, ICntrl=      2127 FMM=F ISym2X=0 I1Cent= 0 IOpClX= 0 NMat=1 NMatS=1 NMatT=0.
 ***** Axes restored to original set *****
 -------------------------------------------------------------------
 Center     Atomic                   Forces (Hartrees/Bohr)
 Number     Number              X              Y              Z
 -------------------------------------------------------------------
      1        7           0.014868624   -0.007501206    0.003592397
      2        1          -0.009318150    0.000546470   -0.013037150
      3        6          -0.002298707    0.012361971    0.002969243
      4        1          -0.005655323   -0.015695739   -0.006313993
      5        1           0.003417336   -0.002023554    0.004188650
      6        6           0.003074368    0.002015966   -0.001719973
      7        1          -0.004880883   -0.001388090   -0.003493589
      8        1          -0.001177775   -0.000404119    0.006116658
      9        6           0.001759826   -0.006407586   -0.000199955
     10        1          -0.003313879    0.001991299   -0.004493378
     11        1           0.000233302    0.003838796    0.005600273
     12        6          -0.007110155    0.000432863    0.003808706
     13        1           0.001941485    0.003558133   -0.005780430
     14        1           0.004741886   -0.000067304    0.005313877
     15        8           0.008899025    0.021404222    0.008158419
     16        1          -0.008641331   -0.004071745   -0.001472784
     17        1           0.003460350   -0.008590379   -0.003236972
 -------------------------------------------------------------------
 Cartesian Forces:  Max     0.021404222 RMS     0.006633313
 -----------------------------------------------------------------------------------------------
                       Internal Coordinate Forces (Hartree/Bohr or radian)
  Cent   Atom   N1       Length/X         N2         Alpha/Y        N3         Beta/Z          J
 -----------------------------------------------------------------------------------------------
      1  N            0.014869(     1)     -0.007501(    19)      0.003592(    37)
      2  H           -0.009318(     2)      0.000546(    20)     -0.013037(    38)
      3  C           -0.002408(     3)      0.012477(    21)      0.002766(    39)
      4  H           -0.001826(     4)     -0.007106(    22)     -0.002562(    40)
      5  H            0.003417(     5)     -0.002024(    23)      0.004189(    41)
      6  C            0.003072(     6)      0.002053(    24)     -0.001820(    42)
      7  H           -0.004881(     7)     -0.001388(    25)     -0.003494(    43)
      8  H           -0.001178(     8)     -0.000404(    26)      0.006117(    44)
      9  C            0.001760(     9)     -0.006408(    27)     -0.000200(    45)
     10  H           -0.003314(    10)      0.001991(    28)     -0.004493(    46)
     11  H            0.000233(    11)      0.003839(    29)      0.005600(    47)
     12  C           -0.007110(    12)      0.000433(    30)      0.003809(    48)
     13  H            0.001941(    13)      0.003558(    31)     -0.005780(    49)
     14  H            0.004742(    14)     -0.000067(    32)      0.005314(    50)
         X        4  -0.000000(    15)      3  -0.000228(    33)      6   0.000286(    51)     0
     15  O        4   0.010094(    16)     15  -0.000228(    34)      3  -0.000828(    52)     0
     16  H       16  -0.009573(    17)      4  -0.002405(    35)     15   0.000200(    53)     0
     17  H       16  -0.009575(    18)      4  -0.003864(    36)     15   0.000086(    54)     0
 -----------------------------------------------------------------------------------------------
 Internal  Forces:  Max     0.014868624 RMS     0.005274294

 GradGradGradGradGradGradGradGradGradGradGradGradGradGradGradGradGradGrad
 Berny optimization.
 Search for a local minimum.
 Step number   1 out of a maximum of  100
 All quantities printed in internal units (Hartrees-Bohrs-Radians)
 Second derivative matrix not updated -- first step.
 The second derivative matrix:
                          rAH       dih
           rAH          0.04307
           dih          0.00000  -0.00000
 ITU=  0
     Eigenvalues ---    0.00000   0.04307
 RFO step:  Lambda=-2.28245258D-03 EMin= 0.00000000D+00
 Linear search not attempted -- first point.
 Variable       Old X    -DE/DX   Delta X   Delta X   Delta X     New X
                                 (Linear)    (Quad)   (Total)
   rAH        3.77945   0.01009   0.00000   0.22258   0.22258   4.00203
   dih        0.00000   0.00029   0.00000   0.12519   0.12519   0.12519
         Item               Value     Threshold  Converged?
 Maximum Force            0.010094     0.000450     NO 
 RMS     Force            0.007140     0.000300     NO 
 Maximum Displacement     0.222582     0.001800     NO 
 RMS     Displacement     0.180576     0.001200     NO 
 Predicted change in Energy=-1.215653D-03
 GradGradGradGradGradGradGradGradGradGradGradGradGradGradGradGradGradGrad

 ---------------------------------------------------------------------------------------------------
                            Z-MATRIX (ANGSTROMS AND DEGREES)
   CD    Cent   Atom    N1       Length/X        N2       Alpha/Y        N3        Beta/Z          J
 ---------------------------------------------------------------------------------------------------
      1      1  N        0   0.844000          0.456000          0.923000
      2      2  H        0   1.372000          0.495000          1.798000
      3      3  C        0   1.643000          1.125000         -0.113000
      4      4  H        0   2.000000          2.097000          0.243000
      5      5  H        0   0.987000          1.307000         -0.971000
      6      6  C        0   2.779000          0.153000         -0.504000
      7      7  H        0   3.689000          0.384000          0.059000
      8      8  H        0   3.031000          0.222000         -1.566000
      9      9  C        0   2.231000         -1.240000         -0.112000
     10     10  H        0   2.866000         -1.707000          0.647000
     11     11  H        0   2.185000         -1.928000         -0.962000
     12     12  C        0   0.830000         -0.941000          0.469000
     13     13  H        0   0.542000         -1.609000          1.286000
     14     14  H        0   0.068000         -1.027000         -0.314000
     15         X        4   1.000000(    14)      3   90.000(    30)      6    7.173(    45)      0
     16     15  O        4   2.117785(    15)     15   90.000(    31)      3  180.000(    46)      0
     17     16  H       16   0.957200(    16)      4  127.740(    32)     15    0.000(    47)      0
     18     17  H       16   0.957200(    17)      4  127.740(    33)     15  180.000(    48)      0
 ---------------------------------------------------------------------------------------------------
                         Z-Matrix orientation:                         
 ---------------------------------------------------------------------
 Center     Atomic      Atomic             Coordinates (Angstroms)
 Number     Number       Type             X           Y           Z
 ---------------------------------------------------------------------
      1          7           0        0.844000    0.456000    0.923000
      2          1           0        1.372000    0.495000    1.798000
      3          6           0        1.643000    1.125000   -0.113000
      4          1           0        2.000000    2.097000    0.243000
      5          1           0        0.987000    1.307000   -0.971000
      6          6           0        2.779000    0.153000   -0.504000
      7          1           0        3.689000    0.384000    0.059000
      8          1           0        3.031000    0.222000   -1.566000
      9          6           0        2.231000   -1.240000   -0.112000
     10          1           0        2.866000   -1.707000    0.647000
     11          1           0        2.185000   -1.928000   -0.962000
     12          6           0        0.830000   -0.941000    0.469000
     13          1           0        0.542000   -1.609000    1.286000
     14          1           0        0.068000   -1.027000   -0.314000
     15         -1           0        2.934966    1.845071   -0.006740
     16          8           0        2.690472    3.976941    0.931538
     17          1           0        3.589213    4.306326    0.932980
     18          1           0        2.173768    4.687722    1.311062
 ---------------------------------------------------------------------
                    Distance matrix (angstroms):
                    1          2          3          4          5
     1  N    0.000000
     2  H    1.022707   0.000000
     3  C    1.469441   2.030335   0.000000
     4  H    2.119343   2.319227   1.094974   0.000000
     5  H    2.081318   2.911173   1.095274   1.767502   0.000000
     6  C    2.423296   2.719525   1.545368   2.223508   2.181987
     7  H    2.974173   2.899126   2.182838   2.412664   3.035397
     8  H    3.321573   3.760759   2.202989   2.801975   2.389390
     9  C    2.423099   2.719597   2.437000   3.363771   2.961862
    10  H    2.973757   2.899248   3.177035   3.922192   3.902917
    11  H    3.321891   3.761582   3.214868   4.205577   3.449712
    12  C    1.468986   2.030296   2.295223   3.263345   2.674276
    13  H    2.118301   2.319021   3.262539   4.116801   3.714180
    14  H    2.081258   2.911605   2.674347   3.715138   2.593023
    15  X    2.676952   2.742743   1.482892   1.000000   2.239171
    16  O    3.975746   3.822700   3.212759   2.117785   3.694598
    17  H    4.728774   4.493384   3.873326   2.807631   4.403704
    18  H    4.452678   4.296377   3.873326   2.807631   4.248000
                    6          7          8          9         10
     6  C    0.000000
     7  H    1.094728   0.000000
     8  H    1.093668   1.760634   0.000000
     9  C    1.547390   2.189151   2.211687   0.000000
    10  H    2.189057   2.322790   2.940346   1.094255   0.000000
    11  H    2.212049   2.941054   2.388102   1.094514   1.761103
    12  C    2.437656   3.177673   3.215306   1.545886   2.182598
    13  H    3.363467   3.921886   4.204948   2.223350   2.412240
    14  H    2.962773   3.904061   3.450634   2.182829   3.035577
    15  X    1.770507   1.645484   2.252747   3.166119   3.612387
    16  O    4.085478   3.829831   4.522525   5.340090   5.693764
    17  H    4.468945   4.019756   4.820604   5.805037   6.063407
    18  H    4.921835   4.731343   5.380985   6.096414   6.466269
                   11         12         13         14         15
    11  H    0.000000
    12  C    2.204077   0.000000
    13  H    2.802626   1.093918   0.000000
    14  H    2.390271   1.095960   1.767314   0.000000
    15  X    3.963714   3.524117   4.396370   4.069729   0.000000
    16  O    6.221681   5.278394   5.995357   5.785166   2.342011
    17  H    6.665552   5.946676   6.663423   6.511395   2.714570
    18  H    6.995335   5.847845   6.504767   6.303422   3.224390
                   16         17         18
    16  O    0.000000
    17  H    0.957200   0.000000
    18  H    0.957200   1.513901   0.000000
 Stoichiometry    C4H11NO
 Framework group  C1[X(C4H11NO)]
 Deg. of freedom    45
 Full point group                 C1      NOp   1
 Largest Abelian subgroup         C1      NOp   1
 Largest concise Abelian subgroup C1      NOp   1
                         Standard orientation:                         
 ---------------------------------------------------------------------
 Center     Atomic      Atomic             Coordinates (Angstroms)
 Number     Number       Type             X           Y           Z
 ---------------------------------------------------------------------
      1          7           0       -0.401296   -1.189372   -0.061064
      2          1           0       -0.120791   -1.218061   -1.044132
      3          6           0        0.260274   -0.033802    0.560418
      4          1           0        1.327944   -0.024060    0.317610
      5          1           0        0.168472   -0.144208    1.646239
      6          6           0       -0.494881    1.227733    0.084569
      7          1           0        0.005798    1.666631   -0.784406
      8          1           0       -0.532986    1.999703    0.858338
      9          6           0       -1.898196    0.701053   -0.299794
     10          1           0       -2.100834    0.875927   -1.360809
     11          1           0       -2.699100    1.187191    0.266052
     12          6           0       -1.820983   -0.815468   -0.010031
     13          1           0       -2.405497   -1.425381   -0.705018
     14          1           0       -2.182954   -1.027458    1.002474
     15          8           0        3.392919   -0.005220   -0.152004
     16          1           0        3.902469    0.714303   -0.524667
     17          1           0        4.025914   -0.714317   -0.039176
 ---------------------------------------------------------------------
 Rotational constants (GHZ):           6.2541191           1.4701577           1.2768270
 Standard basis: 6-31G(d) (6D, 7F)
 There are   112 symmetry adapted cartesian basis functions of A   symmetry.
 There are   112 symmetry adapted basis functions of A   symmetry.
   112 basis functions,   212 primitive gaussians,   112 cartesian basis functions
    25 alpha electrons       25 beta electrons
       nuclear repulsion energy       248.2292893932 Hartrees.
 NAtoms=   17 NActive=   17 NUniq=   17 SFac= 1.00D+00 NAtFMM=   60 NAOKFM=F Big=F
 Integral buffers will be    131072 words long.
 Raffenetti 1 integral format.
 Two-electron integral symmetry is turned on.
 One-electron integrals computed using PRISM.
 NBasis=   112 RedAO= T EigKep=  3.13D-03  NBF=   112
 NBsUse=   112 1.00D-06 EigRej= -1.00D+00 NBFU=   112
 Initial guess from the checkpoint file:  "PRLD-DON-H21.chk"
 B after Tr=    -0.000000    0.000000   -0.000000
         Rot=    0.999999    0.000312    0.001456    0.000166 Ang=   0.17 deg.
 ExpMin= 1.61D-01 ExpMax= 5.48D+03 ExpMxC= 8.25D+02 IAcc=2 IRadAn=         4 AccDes= 0.00D+00
 Harris functional with IExCor=  205 and IRadAn=       4 diagonalized for initial guess.
 HarFok:  IExCor=  205 AccDes= 0.00D+00 IRadAn=         4 IDoV= 1 UseB2=F ITyADJ=14
 ICtDFT=  3500011 ScaDFX=  1.000000  1.000000  1.000000  1.000000
 FoFCou: FMM=F IPFlag=           0 FMFlag=      100000 FMFlg1=           0
         NFxFlg=           0 DoJE=T BraDBF=F KetDBF=T FulRan=T
         wScrn=  0.000000 ICntrl=       500 IOpCl=  0 I1Cent=   200000004 NGrid=           0
         NMat0=    1 NMatS0=      1 NMatT0=    0 NMatD0=    1 NMtDS0=    0 NMtDT0=    0
 Petite list used in FoFCou.
 Keep R1 ints in memory in canonical form, NReq=20923254.
 Requested convergence on RMS density matrix=1.00D-08 within 128 cycles.
 Requested convergence on MAX density matrix=1.00D-06.
 Requested convergence on             energy=1.00D-06.
 No special actions if energy rises.
 SCF Done:  E(RHF) =  -287.152757912     A.U. after   11 cycles
            NFock= 11  Conv=0.36D-08     -V/T= 2.0017
 Calling FoFJK, ICntrl=      2127 FMM=F ISym2X=0 I1Cent= 0 IOpClX= 0 NMat=1 NMatS=1 NMatT=0.
 ***** Axes restored to original set *****
 -------------------------------------------------------------------
 Center     Atomic                   Forces (Hartrees/Bohr)
 Number     Number              X              Y              Z
 -------------------------------------------------------------------
      1        7           0.015012553   -0.007173684    0.003772333
      2        1          -0.009345670    0.000531172   -0.013044915
      3        6          -0.002378608    0.012195253    0.002971956
      4        1          -0.004681840   -0.013013868   -0.005309240
      5        1           0.003573215   -0.001779289    0.004410573
      6        6           0.003433415    0.002148199   -0.001633449
      7        1          -0.004986310   -0.001374099   -0.003542410
      8        1          -0.001233950   -0.000377585    0.006138136
      9        6           0.001703764   -0.006372985   -0.000189186
     10        1          -0.003317809    0.002041292   -0.004517940
     11        1           0.000228783    0.003874749    0.005610058
     12        6          -0.007098369    0.000398889    0.003646370
     13        1           0.001945775    0.003648150   -0.005789947
     14        1           0.004739440   -0.000069705    0.005329210
     15        8           0.007661964    0.018270757    0.006984579
     16        1          -0.008800177   -0.004512506   -0.000703506
     17        1           0.003543825   -0.008434740   -0.004132623
 -------------------------------------------------------------------
 Cartesian Forces:  Max     0.018270757 RMS     0.006256050
 -----------------------------------------------------------------------------------------------
                       Internal Coordinate Forces (Hartree/Bohr or radian)
  Cent   Atom   N1       Length/X         N2         Alpha/Y        N3         Beta/Z          J
 -----------------------------------------------------------------------------------------------
      1  N            0.015013(     1)     -0.007174(    19)      0.003772(    37)
      2  H           -0.009346(     2)      0.000531(    20)     -0.013045(    38)
      3  C           -0.002510(     3)      0.012334(    21)      0.002724(    39)
      4  H           -0.002143(     4)     -0.007850(    22)     -0.002858(    40)
      5  H            0.003573(     5)     -0.001779(    23)      0.004411(    41)
      6  C            0.003432(     6)      0.002169(    24)     -0.001688(    42)
      7  H           -0.004986(     7)     -0.001374(    25)     -0.003542(    43)
      8  H           -0.001234(     8)     -0.000378(    26)      0.006138(    44)
      9  C            0.001704(     9)     -0.006373(    27)     -0.000189(    45)
     10  H           -0.003318(    10)      0.002041(    28)     -0.004518(    46)
     11  H            0.000229(    11)      0.003875(    29)      0.005610(    47)
     12  C           -0.007098(    12)      0.000399(    30)      0.003646(    48)
     13  H            0.001946(    13)      0.003648(    31)     -0.005790(    49)
     14  H            0.004739(    14)     -0.000070(    32)      0.005329(    50)
         X        4   0.000000(    15)      3  -0.000176(    33)      6   0.000157(    51)     0
     15  O        4   0.006208(    16)     15  -0.000176(    34)      3  -0.000805(    52)     0
     16  H       16  -0.009817(    17)      4  -0.002505(    35)     15   0.000190(    53)     0
     17  H       16  -0.009815(    18)      4  -0.003816(    36)     15  -0.000033(    54)     0
 -----------------------------------------------------------------------------------------------
 Internal  Forces:  Max     0.015012553 RMS     0.005210964

 GradGradGradGradGradGradGradGradGradGradGradGradGradGradGradGradGradGrad
 Berny optimization.
 Search for a local minimum.
 Step number   2 out of a maximum of  100
 All quantities printed in internal units (Hartrees-Bohrs-Radians)
 Update second derivatives using D2CorN and points    1    2
 DE= -1.81D-03 DEPred=-1.22D-03 R= 1.49D+00
 TightC=F SS=  1.41D+00  RLast= 2.55D-01 DXNew= 5.0454D-01 7.6612D-01
 Trust test= 1.49D+00 RLast= 2.55D-01 DXMaxT set to 5.05D-01
 The second derivative matrix:
                          rAH       dih
           rAH          0.02361
           dih         -0.00525   0.00025
 ITU=  1  0
 Linear search step of   0.511 exceeds DXMaxT=   0.505 but not scaled.
 Quartic linear search produced a step of  2.00000.
 Variable       Old X    -DE/DX   Delta X   Delta X   Delta X     New X
                                 (Linear)    (Quad)   (Total)
   rAH        4.00203   0.00621   0.44516   0.00000   0.44516   4.44720
   dih        0.12519   0.00016   0.25038   0.00000   0.25038   0.37558
         Item               Value     Threshold  Converged?
 Maximum Force            0.006208     0.000450     NO 
 RMS     Force            0.004391     0.000300     NO 
 Maximum Displacement     0.445163     0.001800     NO 
 RMS     Displacement     0.361153     0.001200     NO 
 Predicted change in Energy=-1.041045D-03
 GradGradGradGradGradGradGradGradGradGradGradGradGradGradGradGradGradGrad

 ---------------------------------------------------------------------------------------------------
                            Z-MATRIX (ANGSTROMS AND DEGREES)
   CD    Cent   Atom    N1       Length/X        N2       Alpha/Y        N3        Beta/Z          J
 ---------------------------------------------------------------------------------------------------
      1      1  N        0   0.844000          0.456000          0.923000
      2      2  H        0   1.372000          0.495000          1.798000
      3      3  C        0   1.643000          1.125000         -0.113000
      4      4  H        0   2.000000          2.097000          0.243000
      5      5  H        0   0.987000          1.307000         -0.971000
      6      6  C        0   2.779000          0.153000         -0.504000
      7      7  H        0   3.689000          0.384000          0.059000
      8      8  H        0   3.031000          0.222000         -1.566000
      9      9  C        0   2.231000         -1.240000         -0.112000
     10     10  H        0   2.866000         -1.707000          0.647000
     11     11  H        0   2.185000         -1.928000         -0.962000
     12     12  C        0   0.830000         -0.941000          0.469000
     13     13  H        0   0.542000         -1.609000          1.286000
     14     14  H        0   0.068000         -1.027000         -0.314000
     15         X        4   1.000000(    14)      3   90.000(    30)      6   21.519(    45)      0
     16     15  O        4   2.353355(    15)     15   90.000(    31)      3  180.000(    46)      0
     17     16  H       16   0.957200(    16)      4  127.740(    32)     15    0.000(    47)      0
     18     17  H       16   0.957200(    17)      4  127.740(    33)     15  180.000(    48)      0
 ---------------------------------------------------------------------------------------------------
                         Z-Matrix orientation:                         
 ---------------------------------------------------------------------
 Center     Atomic      Atomic             Coordinates (Angstroms)
 Number     Number       Type             X           Y           Z
 ---------------------------------------------------------------------
      1          7           0        0.844000    0.456000    0.923000
      2          1           0        1.372000    0.495000    1.798000
      3          6           0        1.643000    1.125000   -0.113000
      4          1           0        2.000000    2.097000    0.243000
      5          1           0        0.987000    1.307000   -0.971000
      6          6           0        2.779000    0.153000   -0.504000
      7          1           0        3.689000    0.384000    0.059000
      8          1           0        3.031000    0.222000   -1.566000
      9          6           0        2.231000   -1.240000   -0.112000
     10          1           0        2.866000   -1.707000    0.647000
     11          1           0        2.185000   -1.928000   -0.962000
     12          6           0        0.830000   -0.941000    0.469000
     13          1           0        0.542000   -1.609000    1.286000
     14          1           0        0.068000   -1.027000   -0.314000
     15         -1           0        2.871176    1.948420   -0.224950
     16          8           0        2.767276    4.186054    1.008127
     17          1           0        3.617731    4.593670    0.844395
     18          1           0        2.298858    4.818605    1.552825
 ---------------------------------------------------------------------
                    Distance matrix (angstroms):
                    1          2          3          4          5
     1  N    0.000000
     2  H    1.022707   0.000000
     3  C    1.469441   2.030335   0.000000
     4  H    2.119343   2.319227   1.094974   0.000000
     5  H    2.081318   2.911173   1.095274   1.767502   0.000000
     6  C    2.423296   2.719525   1.545368   2.223508   2.181987
     7  H    2.974173   2.899126   2.182838   2.412664   3.035397
     8  H    3.321573   3.760759   2.202989   2.801975   2.389390
     9  C    2.423099   2.719597   2.437000   3.363771   2.961862
    10  H    2.973757   2.899248   3.177035   3.922192   3.902917
    11  H    3.321891   3.761582   3.214868   4.205577   3.449712
    12  C    1.468986   2.030296   2.295223   3.263345   2.674276
    13  H    2.118301   2.319021   3.262539   4.116801   3.714180
    14  H    2.081258   2.911605   2.674347   3.715138   2.593023
    15  X    2.766685   2.907281   1.482892   1.000000   2.125589
    16  O    4.197564   4.024249   3.448330   2.353355   3.921133
    17  H    4.981975   4.769881   4.104612   3.035143   4.584605
    18  H    4.641725   4.428627   4.104612   3.035143   4.519074
                    6          7          8          9         10
     6  C    0.000000
     7  H    1.094728   0.000000
     8  H    1.093668   1.760634   0.000000
     9  C    1.547390   2.189151   2.211687   0.000000
    10  H    2.189057   2.322790   2.940346   1.094255   0.000000
    11  H    2.212049   2.941054   2.388102   1.094514   1.761103
    12  C    2.437656   3.177673   3.215306   1.545886   2.182598
    13  H    3.363467   3.921886   4.204948   2.223350   2.412240
    14  H    2.962773   3.904061   3.450634   2.182829   3.035577
    15  X    1.819313   1.787980   2.191914   3.254014   3.757981
    16  O    4.307226   4.025672   4.733858   5.566358   5.904934
    17  H    4.716057   4.282902   5.026505   6.072019   6.348425
    18  H    5.121419   4.881570   5.602846   6.283545   6.612540
                   11         12         13         14         15
    11  H    0.000000
    12  C    2.204077   0.000000
    13  H    2.802626   1.093918   0.000000
    14  H    2.390271   1.095960   1.767314   0.000000
    15  X    4.005086   3.605095   4.512568   4.088869   0.000000
    16  O    6.449970   5.507303   6.213833   6.017479   2.557006
    17  H    6.917222   6.208457   6.937453   6.747918   2.949270
    18  H    7.200971   6.041959   6.668722   6.529384   3.424324
                   16         17         18
    16  O    0.000000
    17  H    0.957200   0.000000
    18  H    0.957200   1.513901   0.000000
 Stoichiometry    C4H11NO
 Framework group  C1[X(C4H11NO)]
 Deg. of freedom    45
 Full point group                 C1      NOp   1
 Largest Abelian subgroup         C1      NOp   1
 Largest concise Abelian subgroup C1      NOp   1
                         Standard orientation:                         
 ---------------------------------------------------------------------
 Center     Atomic      Atomic             Coordinates (Angstroms)
 Number     Number       Type             X           Y           Z
 ---------------------------------------------------------------------
      1          7           0       -0.447452   -1.189912   -0.045606
      2          1           0       -0.155205   -1.227347   -1.024953
      3          6           0        0.207453   -0.029372    0.573671
      4          1           0        1.277963   -0.022406    0.343608
      5          1           0        0.102563   -0.130247    1.659234
      6          6           0       -0.541037    1.228428    0.077826
      7          1           0       -0.029663    1.659422   -0.788874
      8          1           0       -0.587858    2.007141    0.844325
      9          6           0       -1.940022    0.699279   -0.318734
     10          1           0       -2.129803    0.865016   -1.383586
     11          1           0       -2.747302    1.190826    0.233209
     12          6           0       -1.867380   -0.814705   -0.014862
     13          1           0       -2.443960   -1.430297   -0.711467
     14          1           0       -2.241613   -1.017632    0.995039
     15          8           0        3.578738   -0.007432   -0.150850
     16          1           0        4.131737    0.749808   -0.343230
     17          1           0        4.171323   -0.757218   -0.204667
 ---------------------------------------------------------------------
 Rotational constants (GHZ):           6.2292968           1.3537870           1.1883699
 Standard basis: 6-31G(d) (6D, 7F)
 There are   112 symmetry adapted cartesian basis functions of A   symmetry.
 There are   112 symmetry adapted basis functions of A   symmetry.
   112 basis functions,   212 primitive gaussians,   112 cartesian basis functions
    25 alpha electrons       25 beta electrons
       nuclear repulsion energy       245.6602566059 Hartrees.
 NAtoms=   17 NActive=   17 NUniq=   17 SFac= 1.00D+00 NAtFMM=   60 NAOKFM=F Big=F
 Integral buffers will be    131072 words long.
 Raffenetti 1 integral format.
 Two-electron integral symmetry is turned on.
 One-electron integrals computed using PRISM.
 NBasis=   112 RedAO= T EigKep=  3.14D-03  NBF=   112
 NBsUse=   112 1.00D-06 EigRej= -1.00D+00 NBFU=   112
 Initial guess from the checkpoint file:  "PRLD-DON-H21.chk"
 B after Tr=     0.000000   -0.000000    0.000000
         Rot=    0.999995    0.001644    0.002633    0.000301 Ang=   0.36 deg.
 ExpMin= 1.61D-01 ExpMax= 5.48D+03 ExpMxC= 8.25D+02 IAcc=2 IRadAn=         4 AccDes= 0.00D+00
 Harris functional with IExCor=  205 and IRadAn=       4 diagonalized for initial guess.
 HarFok:  IExCor=  205 AccDes= 0.00D+00 IRadAn=         4 IDoV= 1 UseB2=F ITyADJ=14
 ICtDFT=  3500011 ScaDFX=  1.000000  1.000000  1.000000  1.000000
 FoFCou: FMM=F IPFlag=           0 FMFlag=      100000 FMFlg1=           0
         NFxFlg=           0 DoJE=T BraDBF=F KetDBF=T FulRan=T
         wScrn=  0.000000 ICntrl=       500 IOpCl=  0 I1Cent=   200000004 NGrid=           0
         NMat0=    1 NMatS0=      1 NMatT0=    0 NMatD0=    1 NMtDS0=    0 NMtDT0=    0
 Petite list used in FoFCou.
 Keep R1 ints in memory in canonical form, NReq=20922690.
 Requested convergence on RMS density matrix=1.00D-08 within 128 cycles.
 Requested convergence on MAX density matrix=1.00D-06.
 Requested convergence on             energy=1.00D-06.
 No special actions if energy rises.
 SCF Done:  E(RHF) =  -287.154502359     A.U. after   11 cycles
            NFock= 11  Conv=0.70D-08     -V/T= 2.0017
 Calling FoFJK, ICntrl=      2127 FMM=F ISym2X=0 I1Cent= 0 IOpClX= 0 NMat=1 NMatS=1 NMatT=0.
 ***** Axes restored to original set *****
 -------------------------------------------------------------------
 Center     Atomic                   Forces (Hartrees/Bohr)
 Number     Number              X              Y              Z
 -------------------------------------------------------------------
      1        7           0.015213495   -0.006662960    0.004025495
      2        1          -0.009394760    0.000479467   -0.013041029
      3        6          -0.002686336    0.011381453    0.002779337
      4        1          -0.003588310   -0.010010845   -0.004168056
      5        1           0.003782406   -0.001410399    0.004724093
      6        6           0.003972889    0.002342273   -0.001519713
      7        1          -0.005126089   -0.001358315   -0.003624525
      8        1          -0.001311002   -0.000335640    0.006178303
      9        6           0.001614901   -0.006321718   -0.000166741
     10        1          -0.003322603    0.002116025   -0.004556473
     11        1           0.000222389    0.003932340    0.005626322
     12        6          -0.007079209    0.000323103    0.003404765
     13        1           0.001951645    0.003784640   -0.005803678
     14        1           0.004736243   -0.000066966    0.005357828
     15        8           0.006355779    0.015078218    0.005774548
     16        1          -0.008621806   -0.005421932    0.000827353
     17        1           0.003280367   -0.007848745   -0.005817830
 -------------------------------------------------------------------
 Cartesian Forces:  Max     0.015213495 RMS     0.005893744
 -----------------------------------------------------------------------------------------------
                       Internal Coordinate Forces (Hartree/Bohr or radian)
  Cent   Atom   N1       Length/X         N2         Alpha/Y        N3         Beta/Z          J
 -----------------------------------------------------------------------------------------------
      1  N            0.015213(     1)     -0.006663(    19)      0.004025(    37)
      2  H           -0.009395(     2)      0.000479(    20)     -0.013041(    38)
      3  C           -0.002855(     3)      0.011548(    21)      0.002493(    39)
      4  H           -0.002406(     4)     -0.008364(    22)     -0.003115(    40)
      5  H            0.003782(     5)     -0.001410(    23)      0.004724(    41)
      6  C            0.003973(     6)      0.002336(    24)     -0.001503(    42)
      7  H           -0.005126(     7)     -0.001358(    25)     -0.003625(    43)
      8  H           -0.001311(     8)     -0.000336(    26)      0.006178(    44)
      9  C            0.001615(     9)     -0.006322(    27)     -0.000167(    45)
     10  H           -0.003323(    10)      0.002116(    28)     -0.004556(    46)
     11  H            0.000222(    11)      0.003932(    29)      0.005626(    47)
     12  C           -0.007079(    12)      0.000323(    30)      0.003405(    48)
     13  H            0.001952(    13)      0.003785(    31)     -0.005804(    49)
     14  H            0.004736(    14)     -0.000067(    32)      0.005358(    50)
         X        4   0.000000(    15)      3  -0.000099(    33)      6  -0.000049(    51)     0
     15  O        4   0.002190(    16)     15  -0.000099(    34)      3  -0.000710(    52)     0
     16  H       16  -0.010111(    17)      4  -0.002668(    35)     15   0.000175(    53)     0
     17  H       16  -0.010103(    18)      4  -0.003673(    36)     15  -0.000223(    54)     0
 -----------------------------------------------------------------------------------------------
 Internal  Forces:  Max     0.015213495 RMS     0.005178782

 GradGradGradGradGradGradGradGradGradGradGradGradGradGradGradGradGradGrad
 Berny optimization.
 Search for a local minimum.
 Step number   3 out of a maximum of  100
 All quantities printed in internal units (Hartrees-Bohrs-Radians)
 Update second derivatives using D2CorN and points    2    3
 The second derivative matrix:
                          rAH       dih
           rAH          0.01478
           dih         -0.00562   0.00263
 ITU=  0  1  0
 Linear search step of   1.021 exceeds DXMaxT=   0.505 scaled by   0.988
 Quartic linear search produced a step of  1.97569.
 Variable       Old X    -DE/DX   Delta X   Delta X   Delta X     New X
                                 (Linear)    (Quad)   (Total)
   rAH        4.44720   0.00219   0.87950   0.00000   0.87950   5.32670
   dih        0.37558  -0.00005   0.49468   0.00000   0.49468   0.87026
         Item               Value     Threshold  Converged?
 Maximum Force            0.002190     0.000450     NO 
 RMS     Force            0.001549     0.000300     NO 
 Maximum Displacement     0.879502     0.001800     NO 
 RMS     Displacement     0.713524     0.001200     NO 
 Predicted change in Energy=-1.689327D-03
 GradGradGradGradGradGradGradGradGradGradGradGradGradGradGradGradGradGrad

 ---------------------------------------------------------------------------------------------------
                            Z-MATRIX (ANGSTROMS AND DEGREES)
   CD    Cent   Atom    N1       Length/X        N2       Alpha/Y        N3        Beta/Z          J
 ---------------------------------------------------------------------------------------------------
      1      1  N        0   0.844000          0.456000          0.923000
      2      2  H        0   1.372000          0.495000          1.798000
      3      3  C        0   1.643000          1.125000         -0.113000
      4      4  H        0   2.000000          2.097000          0.243000
      5      5  H        0   0.987000          1.307000         -0.971000
      6      6  C        0   2.779000          0.153000         -0.504000
      7      7  H        0   3.689000          0.384000          0.059000
      8      8  H        0   3.031000          0.222000         -1.566000
      9      9  C        0   2.231000         -1.240000         -0.112000
     10     10  H        0   2.866000         -1.707000          0.647000
     11     11  H        0   2.185000         -1.928000         -0.962000
     12     12  C        0   0.830000         -0.941000          0.469000
     13     13  H        0   0.542000         -1.609000          1.286000
     14     14  H        0   0.068000         -1.027000         -0.314000
     15         X        4   1.000000(    14)      3   90.000(    30)      6   49.862(    45)      0
     16     15  O        4   2.818768(    15)     15   90.000(    31)      3  180.000(    46)      0
     17     16  H       16   0.957200(    16)      4  127.740(    32)     15    0.000(    47)      0
     18     17  H       16   0.957200(    17)      4  127.740(    33)     15  180.000(    48)      0
 ---------------------------------------------------------------------------------------------------
                         Z-Matrix orientation:                         
 ---------------------------------------------------------------------
 Center     Atomic      Atomic             Coordinates (Angstroms)
 Number     Number       Type             X           Y           Z
 ---------------------------------------------------------------------
      1          7           0        0.844000    0.456000    0.923000
      2          1           0        1.372000    0.495000    1.798000
      3          6           0        1.643000    1.125000   -0.113000
      4          1           0        2.000000    2.097000    0.243000
      5          1           0        0.987000    1.307000   -0.971000
      6          6           0        2.779000    0.153000   -0.504000
      7          1           0        3.689000    0.384000    0.059000
      8          1           0        3.031000    0.222000   -1.566000
      9          6           0        2.231000   -1.240000   -0.112000
     10          1           0        2.866000   -1.707000    0.647000
     11          1           0        2.185000   -1.928000   -0.962000
     12          6           0        0.830000   -0.941000    0.469000
     13          1           0        0.542000   -1.609000    1.286000
     14          1           0        0.068000   -1.027000   -0.314000
     15         -1           0        2.592464    2.173131   -0.558992
     16          8           0        2.919017    4.599197    1.159443
     17          1           0        3.558501    5.176908    0.742858
     18          1           0        2.661570    5.061653    1.956994
 ---------------------------------------------------------------------
                    Distance matrix (angstroms):
                    1          2          3          4          5
     1  N    0.000000
     2  H    1.022707   0.000000
     3  C    1.469441   2.030335   0.000000
     4  H    2.119343   2.319227   1.094974   0.000000
     5  H    2.081318   2.911173   1.095274   1.767502   0.000000
     6  C    2.423296   2.719525   1.545368   2.223508   2.181987
     7  H    2.974173   2.899126   2.182838   2.412664   3.035397
     8  H    3.321573   3.760759   2.202989   2.801975   2.389390
     9  C    2.423099   2.719597   2.437000   3.363771   2.961862
    10  H    2.973757   2.899248   3.177035   3.922192   3.902917
    11  H    3.321891   3.761582   3.214868   4.205577   3.449712
    12  C    1.468986   2.030296   2.295223   3.263345   2.674276
    13  H    2.118301   2.319021   3.262539   4.116801   3.714180
    14  H    2.081258   2.911605   2.674347   3.715138   2.593023
    15  X    2.863907   3.140233   1.482892   1.000000   1.870146
    16  O    4.639794   4.432319   3.913742   2.818768   4.371503
    17  H    5.448664   5.273933   4.562849   3.487781   4.952385
    18  H    5.058136   4.747903   4.562849   3.487781   5.047252
                    6          7          8          9         10
     6  C    0.000000
     7  H    1.094728   0.000000
     8  H    1.093668   1.760634   0.000000
     9  C    1.547390   2.189151   2.211687   0.000000
    10  H    2.189057   2.322790   2.940346   1.094255   0.000000
    11  H    2.212049   2.941054   2.388102   1.094514   1.761103
    12  C    2.437656   3.177673   3.215306   1.545886   2.182598
    13  H    3.363467   3.921886   4.204948   2.223350   2.412240
    14  H    2.962773   3.904061   3.450634   2.182829   3.035577
    15  X    2.029470   2.187532   2.239038   3.461202   4.072426
    16  O    4.749244   4.423996   5.157561   6.015493   6.327206
    17  H    5.234685   4.843208   5.491830   6.608309   6.919316
    18  H    5.492281   5.151546   5.997516   6.646575   6.897285
                   11         12         13         14         15
    11  H    0.000000
    12  C    2.204077   0.000000
    13  H    2.802626   1.093918   0.000000
    14  H    2.390271   1.095960   1.767314   0.000000
    15  X    4.140980   3.723017   4.681123   4.083354   0.000000
    16  O    6.902435   5.961081   6.648905   6.477147   2.990895
    17  H    7.434565   6.704365   7.445994   7.196459   3.413315
    18  H    7.589657   6.449854   7.031388   6.996836   3.831255
                   16         17         18
    16  O    0.000000
    17  H    0.957200   0.000000
    18  H    0.957200   1.513901   0.000000
 Stoichiometry    C4H11NO
 Framework group  C1[X(C4H11NO)]
 Deg. of freedom    45
 Full point group                 C1      NOp   1
 Largest Abelian subgroup         C1      NOp   1
 Largest concise Abelian subgroup C1      NOp   1
                         Standard orientation:                         
 ---------------------------------------------------------------------
 Center     Atomic      Atomic             Coordinates (Angstroms)
 Number     Number       Type             X           Y           Z
 ---------------------------------------------------------------------
      1          7           0       -0.538917   -1.190479   -0.015528
      2          1           0       -0.226785   -1.245776   -0.987869
      3          6           0        0.104295   -0.019301    0.595927
      4          1           0        1.179282   -0.017094    0.387678
      5          1           0       -0.022814   -0.100476    1.680767
      6          6           0       -0.632755    1.229749    0.062266
      7          1           0       -0.103404    1.644719   -0.801457
      8          1           0       -0.694480    2.022218    0.813460
      9          6           0       -2.023849    0.694302   -0.353149
     10          1           0       -2.191711    0.840868   -1.424474
     11          1           0       -2.841764    1.196198    0.173229
     12          6           0       -1.958828   -0.813982   -0.020560
     13          1           0       -2.521647   -1.441743   -0.717559
     14          1           0       -2.353774   -0.998410    0.984990
     15          8           0        3.946596   -0.011412   -0.148411
     16          1           0        4.574060    0.692157    0.017457
     17          1           0        4.469508   -0.712619   -0.537132
 ---------------------------------------------------------------------
 Rotational constants (GHZ):           6.1866355           1.1570699           1.0359431
 Standard basis: 6-31G(d) (6D, 7F)
 There are   112 symmetry adapted cartesian basis functions of A   symmetry.
 There are   112 symmetry adapted basis functions of A   symmetry.
   112 basis functions,   212 primitive gaussians,   112 cartesian basis functions
    25 alpha electrons       25 beta electrons
       nuclear repulsion energy       241.3190238241 Hartrees.
 NAtoms=   17 NActive=   17 NUniq=   17 SFac= 1.00D+00 NAtFMM=   60 NAOKFM=F Big=F
 Integral buffers will be    131072 words long.
 Raffenetti 1 integral format.
 Two-electron integral symmetry is turned on.
 One-electron integrals computed using PRISM.
 NBasis=   112 RedAO= T EigKep=  3.15D-03  NBF=   112
 NBsUse=   112 1.00D-06 EigRej= -1.00D+00 NBFU=   112
 Initial guess from the checkpoint file:  "PRLD-DON-H21.chk"
 B after Tr=    -0.000000   -0.000000    0.000000
         Rot=    0.999983    0.003829    0.004278    0.000362 Ang=   0.66 deg.
 ExpMin= 1.61D-01 ExpMax= 5.48D+03 ExpMxC= 8.25D+02 IAcc=2 IRadAn=         4 AccDes= 0.00D+00
 Harris functional with IExCor=  205 and IRadAn=       4 diagonalized for initial guess.
 HarFok:  IExCor=  205 AccDes= 0.00D+00 IRadAn=         4 IDoV= 1 UseB2=F ITyADJ=14
 ICtDFT=  3500011 ScaDFX=  1.000000  1.000000  1.000000  1.000000
 FoFCou: FMM=F IPFlag=           0 FMFlag=      100000 FMFlg1=           0
         NFxFlg=           0 DoJE=T BraDBF=F KetDBF=T FulRan=T
         wScrn=  0.000000 ICntrl=       500 IOpCl=  0 I1Cent=   200000004 NGrid=           0
         NMat0=    1 NMatS0=      1 NMatT0=    0 NMatD0=    1 NMtDS0=    0 NMtDT0=    0
 Petite list used in FoFCou.
 Keep R1 ints in memory in canonical form, NReq=20921688.
 Requested convergence on RMS density matrix=1.00D-08 within 128 cycles.
 Requested convergence on MAX density matrix=1.00D-06.
 Requested convergence on             energy=1.00D-06.
 No special actions if energy rises.
 SCF Done:  E(RHF) =  -287.155099014     A.U. after   12 cycles
            NFock= 12  Conv=0.41D-08     -V/T= 2.0018
 Calling FoFJK, ICntrl=      2127 FMM=F ISym2X=0 I1Cent= 0 IOpClX= 0 NMat=1 NMatS=1 NMatT=0.
 ***** Axes restored to original set *****
 -------------------------------------------------------------------
 Center     Atomic                   Forces (Hartrees/Bohr)
 Number     Number              X              Y              Z
 -------------------------------------------------------------------
      1        7           0.015449203   -0.006036553    0.004277850
      2        1          -0.009493254    0.000400166   -0.013007967
      3        6          -0.003274197    0.009775451    0.002379166
      4        1          -0.002841416   -0.007986129   -0.003364487
      5        1           0.003989566   -0.000984785    0.005035458
      6        6           0.004583363    0.002553978   -0.001458580
      7        1          -0.005238528   -0.001359156   -0.003738602
      8        1          -0.001376501   -0.000275414    0.006258599
      9        6           0.001503261   -0.006264507   -0.000120794
     10        1          -0.003326227    0.002202443   -0.004606241
     11        1           0.000219772    0.004012839    0.005650348
     12        6          -0.007058649    0.000191256    0.003119791
     13        1           0.001958241    0.003953406   -0.005823238
     14        1           0.004734639   -0.000055140    0.005401836
     15        8           0.005524875    0.013268287    0.005033196
     16        1          -0.006835473   -0.007196489    0.003286544
     17        1           0.001481323   -0.006199651   -0.008322882
 -------------------------------------------------------------------
 Cartesian Forces:  Max     0.015449203 RMS     0.005682346
 -----------------------------------------------------------------------------------------------
                       Internal Coordinate Forces (Hartree/Bohr or radian)
  Cent   Atom   N1       Length/X         N2         Alpha/Y        N3         Beta/Z          J
 -----------------------------------------------------------------------------------------------
      1  N            0.015449(     1)     -0.006037(    19)      0.004278(    37)
      2  H           -0.009493(     2)      0.000400(    20)     -0.013008(    38)
      3  C           -0.003493(     3)      0.009934(    21)      0.002164(    39)
      4  H           -0.002454(     4)     -0.008246(    22)     -0.003225(    40)
      5  H            0.003990(     5)     -0.000985(    23)      0.005035(    41)
      6  C            0.004585(     6)      0.002527(    24)     -0.001387(    42)
      7  H           -0.005239(     7)     -0.001359(    25)     -0.003739(    43)
      8  H           -0.001377(     8)     -0.000275(    26)      0.006259(    44)
      9  C            0.001503(     9)     -0.006265(    27)     -0.000121(    45)
     10  H           -0.003326(    10)      0.002202(    28)     -0.004606(    46)
     11  H            0.000220(    11)      0.004013(    29)      0.005650(    47)
     12  C           -0.007059(    12)      0.000191(    30)      0.003120(    48)
     13  H            0.001958(    13)      0.003953(    31)     -0.005823(    49)
     14  H            0.004735(    14)     -0.000055(    32)      0.005402(    50)
         X        4  -0.000000(    15)      3  -0.000076(    33)      6  -0.000205(    51)     0
     15  O        4  -0.000059(    16)     15  -0.000076(    34)      3  -0.000545(    52)     0
     16  H       16  -0.010340(    17)      4  -0.002789(    35)     15   0.000173(    53)     0
     17  H       16  -0.010328(    18)      4  -0.003213(    36)     15  -0.000378(    54)     0
 -----------------------------------------------------------------------------------------------
 Internal  Forces:  Max     0.015449203 RMS     0.005150333

 GradGradGradGradGradGradGradGradGradGradGradGradGradGradGradGradGradGrad
 Berny optimization.
 Search for a local minimum.
 Step number   4 out of a maximum of  100
 All quantities printed in internal units (Hartrees-Bohrs-Radians)
 Update second derivatives using D2CorN and points    4
 The second derivative matrix:
                          rAH       dih
           rAH          0.01478
           dih         -0.00562   0.00263
 ITU=  0  0  1
     Eigenvalues ---    0.00043   0.01698
 RFO step:  Lambda=-8.83215260D-05 EMin= 4.28400603D-04
 Quartic linear search produced a step of -0.18654.
 Variable       Old X    -DE/DX   Delta X   Delta X   Delta X     New X
                                 (Linear)    (Quad)   (Total)
   rAH        5.32670  -0.00006  -0.16406  -0.13352  -0.29758   5.02912
   dih        0.87026  -0.00021  -0.09228  -0.38199  -0.47427   0.39599
         Item               Value     Threshold  Converged?
 Maximum Force            0.000205     0.000450     YES
 RMS     Force            0.000151     0.000300     YES
 Maximum Displacement     0.474265     0.001800     NO 
 RMS     Displacement     0.395904     0.001200     NO 
 Predicted change in Energy=-4.204147D-05
 GradGradGradGradGradGradGradGradGradGradGradGradGradGradGradGradGradGrad

 ---------------------------------------------------------------------------------------------------
                            Z-MATRIX (ANGSTROMS AND DEGREES)
   CD    Cent   Atom    N1       Length/X        N2       Alpha/Y        N3        Beta/Z          J
 ---------------------------------------------------------------------------------------------------
      1      1  N        0   0.844000          0.456000          0.923000
      2      2  H        0   1.372000          0.495000          1.798000
      3      3  C        0   1.643000          1.125000         -0.113000
      4      4  H        0   2.000000          2.097000          0.243000
      5      5  H        0   0.987000          1.307000         -0.971000
      6      6  C        0   2.779000          0.153000         -0.504000
      7      7  H        0   3.689000          0.384000          0.059000
      8      8  H        0   3.031000          0.222000         -1.566000
      9      9  C        0   2.231000         -1.240000         -0.112000
     10     10  H        0   2.866000         -1.707000          0.647000
     11     11  H        0   2.185000         -1.928000         -0.962000
     12     12  C        0   0.830000         -0.941000          0.469000
     13     13  H        0   0.542000         -1.609000          1.286000
     14     14  H        0   0.068000         -1.027000         -0.314000
     15         X        4   1.000000(    14)      3   90.000(    30)      6   22.689(    45)      0
     16     15  O        4   2.661296(    15)     15   90.000(    31)      3  180.000(    46)      0
     17     16  H       16   0.957200(    16)      4  127.740(    32)     15    0.000(    47)      0
     18     17  H       16   0.957200(    17)      4  127.740(    33)     15  180.000(    48)      0
 ---------------------------------------------------------------------------------------------------
                         Z-Matrix orientation:                         
 ---------------------------------------------------------------------
 Center     Atomic      Atomic             Coordinates (Angstroms)
 Number     Number       Type             X           Y           Z
 ---------------------------------------------------------------------
      1          7           0        0.844000    0.456000    0.923000
      2          1           0        1.372000    0.495000    1.798000
      3          6           0        1.643000    1.125000   -0.113000
      4          1           0        2.000000    2.097000    0.243000
      5          1           0        0.987000    1.307000   -0.971000
      6          6           0        2.779000    0.153000   -0.504000
      7          1           0        3.689000    0.384000    0.059000
      8          1           0        3.031000    0.222000   -1.566000
      9          6           0        2.231000   -1.240000   -0.112000
     10          1           0        2.866000   -1.707000    0.647000
     11          1           0        2.185000   -1.928000   -0.962000
     12          6           0        0.830000   -0.941000    0.469000
     13          1           0        0.542000   -1.609000    1.286000
     14          1           0        0.068000   -1.027000   -0.314000
     15         -1           0        2.863500    1.957348   -0.241629
     16          8           0        2.867676    4.459411    1.108245
     17          1           0        3.712321    4.873785    0.931889
[...]
         Item               Value     Threshold  Converged?
 Maximum Force            0.000001     0.000450     YES
 RMS     Force            0.000001     0.000300     YES
 Maximum Displacement     0.001011     0.001800     YES
 RMS     Displacement     0.000858     0.001200     YES
 Predicted change in Energy=-3.757451D-10
 Optimization completed.
    -- Stationary point found.
                       ----------------------------
                       !   Optimized Parameters   !
                       ! (Angstroms and Degrees)  !
 ----------------------                            ----------------------
 !      Name          Value   Derivative information (Atomic Units)     !
 ------------------------------------------------------------------------
 !       rAH         2.7768   -DE/DX =    0.0                           !
 !       dih        17.99     -DE/DX =    0.0                           !
 ------------------------------------------------------------------------
 GradGradGradGradGradGradGradGradGradGradGradGradGradGradGradGradGradGrad

 ---------------------------------------------------------------------------------------------------
                            Z-MATRIX (ANGSTROMS AND DEGREES)
   CD    Cent   Atom    N1       Length/X        N2       Alpha/Y        N3        Beta/Z          J
 ---------------------------------------------------------------------------------------------------
      1      1  N        0   0.844000          0.456000          0.923000
      2      2  H        0   1.372000          0.495000          1.798000
      3      3  C        0   1.643000          1.125000         -0.113000
      4      4  H        0   2.000000          2.097000          0.243000
      5      5  H        0   0.987000          1.307000         -0.971000
      6      6  C        0   2.779000          0.153000         -0.504000
      7      7  H        0   3.689000          0.384000          0.059000
      8      8  H        0   3.031000          0.222000         -1.566000
      9      9  C        0   2.231000         -1.240000         -0.112000
     10     10  H        0   2.866000         -1.707000          0.647000
     11     11  H        0   2.185000         -1.928000         -0.962000
     12     12  C        0   0.830000         -0.941000          0.469000
     13     13  H        0   0.542000         -1.609000          1.286000
     14     14  H        0   0.068000         -1.027000         -0.314000
     15         X        4   1.000000(    14)      3   90.000(    30)      6   17.990(    45)      0
     16     15  O        4   2.776811(    15)     15   90.000(    31)      3  180.000(    46)      0
     17     16  H       16   0.957200(    16)      4  127.740(    32)     15    0.000(    47)      0
     18     17  H       16   0.957200(    17)      4  127.740(    33)     15  180.000(    48)      0
 ---------------------------------------------------------------------------------------------------
                         Z-Matrix orientation:                         
 ---------------------------------------------------------------------
 Center     Atomic      Atomic             Coordinates (Angstroms)
 Number     Number       Type             X           Y           Z
 ---------------------------------------------------------------------
      1          7           0        0.844000    0.456000    0.923000
      2          1           0        1.372000    0.495000    1.798000
      3          6           0        1.643000    1.125000   -0.113000
      4          1           0        2.000000    2.097000    0.243000
      5          1           0        0.987000    1.307000   -0.971000
      6          6           0        2.779000    0.153000   -0.504000
      7          1           0        3.689000    0.384000    0.059000
      8          1           0        3.031000    0.222000   -1.566000
      9          6           0        2.231000   -1.240000   -0.112000
     10          1           0        2.866000   -1.707000    0.647000
     11          1           0        2.185000   -1.928000   -0.962000
     12          6           0        0.830000   -0.941000    0.469000
     13          1           0        0.542000   -1.609000    1.286000
     14          1           0        0.068000   -1.027000   -0.314000
     15         -1           0        2.892119    1.921877   -0.173480
     16          8           0        2.905338    4.561952    1.145802
     17          1           0        3.771646    4.949476    1.021030
     18          1           0        2.421066    5.214595    1.651539
 ---------------------------------------------------------------------
                    Distance matrix (angstroms):
                    1          2          3          4          5
     1  N    0.000000
     2  H    1.022707   0.000000
     3  C    1.469441   2.030335   0.000000
     4  H    2.119343   2.319227   1.094974   0.000000
     5  H    2.081318   2.911173   1.095274   1.767502   0.000000
     6  C    2.423296   2.719525   1.545368   2.223508   2.181987
     7  H    2.974173   2.899126   2.182838   2.412664   3.035397
     8  H    3.321573   3.760759   2.202989   2.801975   2.389390
     9  C    2.423099   2.719597   2.437000   3.363771   2.961862
    10  H    2.973757   2.899248   3.177035   3.922192   3.902917
    11  H    3.321891   3.761582   3.214868   4.205577   3.449712
    12  C    1.468986   2.030296   2.295223   3.263345   2.674276
    13  H    2.118301   2.319021   3.262539   4.116801   3.714180
    14  H    2.081258   2.911605   2.674347   3.715138   2.593023
    15  X    2.746972   2.869403   1.482892   1.000000   2.154899
    16  O    4.599739   4.395064   3.871785   2.776811   4.330772
    17  H    5.363958   5.119017   4.521479   3.446836   4.999006
    18  H    5.065780   4.837000   4.521479   3.446836   4.919711
                    6          7          8          9         10
     6  C    0.000000
     7  H    1.094728   0.000000
     8  H    1.093668   1.760634   0.000000
     9  C    1.547390   2.189151   2.211687   0.000000
    10  H    2.189057   2.322790   2.940346   1.094255   0.000000
    11  H    2.212049   2.941054   2.388102   1.094514   1.761103
    12  C    2.437656   3.177673   3.215306   1.545886   2.182598
    13  H    3.363467   3.921886   4.204948   2.223350   2.412240
    14  H    2.962773   3.904061   3.450634   2.182829   3.035577
    15  X    1.803043   1.747607   2.201813   3.230839   3.720567
    16  O    4.709211   4.387545   5.119067   5.974901   6.288888
    17  H    5.130033   4.666466   5.439697   6.478191   6.728206
    18  H    5.513094   5.241992   5.970811   6.693877   7.008248
                   11         12         13         14         15
    11  H    0.000000
    12  C    2.204077   0.000000
    13  H    2.802626   1.093918   0.000000
    14  H    2.390271   1.095960   1.767314   0.000000
    15  X    3.992910   3.586249   4.485558   4.085495   0.000000
    16  O    6.861574   5.920099   6.609514   6.435673   2.951386
    17  H    7.331407   6.607248   7.315355   7.156644   3.371465
    18  H    7.609400   6.466934   7.087027   6.953975   3.794019
                   16         17         18
    16  O    0.000000
    17  H    0.957200   0.000000
    18  H    0.957200   1.513901   0.000000
 Stoichiometry    C4H11NO
 Framework group  C1[X(C4H11NO)]
 Deg. of freedom    45
 Full point group                 C1      NOp   1
 Largest Abelian subgroup         C1      NOp   1
 Largest concise Abelian subgroup C1      NOp   1
                         Standard orientation:                         
 ---------------------------------------------------------------------
 Center     Atomic      Atomic             Coordinates (Angstroms)
 Number     Number       Type             X           Y           Z
 ---------------------------------------------------------------------
      1          7           0       -0.530037   -1.190181   -0.040535
      2          1           0       -0.219446   -1.225462   -1.014300
      3          6           0        0.113504   -0.031327    0.593633
      4          1           0        1.188152   -0.024237    0.383749
      5          1           0       -0.011806   -0.134673    1.676795
      6          6           0       -0.625108    1.227902    0.086726
      7          1           0       -0.097387    1.660706   -0.769206
      8          1           0       -0.686065    2.004858    0.854016
      9          6           0       -2.016571    0.700207   -0.337286
     10          1           0       -2.186246    0.868479   -1.405129
     11          1           0       -2.833916    1.190783    0.200526
     12          6           0       -1.950165   -0.814504   -0.035615
     13          1           0       -2.513757   -1.428263   -0.744361
     14          1           0       -2.343383   -1.019624    0.966600
     15          8           0        3.913414   -0.006256   -0.148509
     16          1           0        4.461357    0.745472   -0.374111
     17          1           0        4.515483   -0.750395   -0.147510
 ---------------------------------------------------------------------
 Rotational constants (GHZ):           6.1899281           1.1734946           1.0483358

 **********************************************************************

            Population analysis using the SCF density.

 **********************************************************************

 Orbital symmetries:
       Occupied  (A) (A) (A) (A) (A) (A) (A) (A) (A) (A) (A) (A)
                 (A) (A) (A) (A) (A) (A) (A) (A) (A) (A) (A) (A)
                 (A)
       Virtual   (A) (A) (A) (A) (A) (A) (A) (A) (A) (A) (A) (A)
                 (A) (A) (A) (A) (A) (A) (A) (A) (A) (A) (A) (A)
                 (A) (A) (A) (A) (A) (A) (A) (A) (A) (A) (A) (A)
                 (A) (A) (A) (A) (A) (A) (A) (A) (A) (A) (A) (A)
                 (A) (A) (A) (A) (A) (A) (A) (A) (A) (A) (A) (A)
                 (A) (A) (A) (A) (A) (A) (A) (A) (A) (A) (A) (A)
                 (A) (A) (A) (A) (A) (A) (A) (A) (A) (A) (A) (A)
                 (A) (A) (A)
 The electronic state is 1-A.
 Alpha  occ. eigenvalues --  -20.56658 -15.52960 -11.23312 -11.22592 -11.20975
 Alpha  occ. eigenvalues --  -11.20757  -1.34744  -1.20527  -1.00920  -0.95750
 Alpha  occ. eigenvalues --   -0.80288  -0.77297  -0.71252  -0.66330  -0.62693
 Alpha  occ. eigenvalues --   -0.57959  -0.57842  -0.57173  -0.50380  -0.49381
 Alpha  occ. eigenvalues --   -0.48221  -0.46889  -0.46381  -0.44724  -0.36202
 Alpha virt. eigenvalues --    0.20118   0.22704   0.25677   0.29608   0.30046
 Alpha virt. eigenvalues --    0.30140   0.31372   0.34049   0.34908   0.36565
 Alpha virt. eigenvalues --    0.37425   0.38841   0.42061   0.42653   0.49642
 Alpha virt. eigenvalues --    0.53515   0.73775   0.77276   0.77818   0.80762
 Alpha virt. eigenvalues --    0.81351   0.84956   0.91489   0.93073   0.93658
 Alpha virt. eigenvalues --    0.96024   1.01729   1.02897   1.03354   1.06647
 Alpha virt. eigenvalues --    1.10632   1.13104   1.13968   1.15336   1.16144
 Alpha virt. eigenvalues --    1.16331   1.16509   1.20366   1.20603   1.21882
 Alpha virt. eigenvalues --    1.23893   1.24821   1.25111   1.37546   1.41188
 Alpha virt. eigenvalues --    1.44026   1.50931   1.53782   1.60257   1.61070
 Alpha virt. eigenvalues --    1.70812   1.92157   2.01688   2.02797   2.05060
 Alpha virt. eigenvalues --    2.06159   2.09740   2.13522   2.14632   2.20962
 Alpha virt. eigenvalues --    2.23558   2.30131   2.32831   2.36183   2.43424
 Alpha virt. eigenvalues --    2.44458   2.44486   2.52143   2.58441   2.60340
 Alpha virt. eigenvalues --    2.62106   2.72499   2.74809   2.82868   2.91044
 Alpha virt. eigenvalues --    2.94140   2.96753   2.99006   3.00014   3.03905
 Alpha virt. eigenvalues --    3.25241   4.00300   4.36097   4.61939   4.69640
 Alpha virt. eigenvalues --    4.88496   5.05760
          Condensed to atoms (all electrons):
               1          2          3          4          5          6
     1  N    7.062135   0.327755   0.289714  -0.030371  -0.048375  -0.084476
     2  H    0.327755   0.433976  -0.042728  -0.004845   0.005727  -0.000707
     3  C    0.289714  -0.042728   5.013314   0.400820   0.404705   0.331391
     4  H   -0.030371  -0.004845   0.400820   0.464574  -0.023440  -0.032135
     5  H   -0.048375   0.005727   0.404705  -0.023440   0.553555  -0.055391
     6  C   -0.084476  -0.000707   0.331391  -0.032135  -0.055391   5.204902
     7  H    0.002611   0.000959  -0.038147  -0.003645   0.003868   0.395914
     8  H    0.004435  -0.000027  -0.032121   0.001125  -0.002550   0.391044
     9  C   -0.085804  -0.000702  -0.061191   0.003405  -0.000259   0.321572
    10  H    0.002691   0.000964   0.003240  -0.000147  -0.000015  -0.038409
    11  H    0.004421  -0.000026   0.003017  -0.000056   0.000161  -0.033460
    12  C    0.294998  -0.042747  -0.095537   0.005520  -0.002105  -0.062032
    13  H   -0.033610  -0.005435   0.006161  -0.000096  -0.000177   0.003847
    14  H   -0.047780   0.005742  -0.001813  -0.000161   0.003493  -0.000384
    15  O    0.000009   0.000009  -0.001827   0.007441   0.000007   0.000018
    16  H   -0.000000  -0.000000   0.000080  -0.000226  -0.000001  -0.000003
    17  H   -0.000001  -0.000001   0.000080  -0.000224  -0.000001  -0.000001
               7          8          9         10         11         12
     1  N    0.002611   0.004435  -0.085804   0.002691   0.004421   0.294998
     2  H    0.000959  -0.000027  -0.000702   0.000964  -0.000026  -0.042747
     3  C   -0.038147  -0.032121  -0.061191   0.003240   0.003017  -0.095537
     4  H   -0.003645   0.001125   0.003405  -0.000147  -0.000056   0.005520
     5  H    0.003868  -0.002550  -0.000259  -0.000015   0.000161  -0.002105
     6  C    0.395914   0.391044   0.321572  -0.038409  -0.033460  -0.062032
     7  H    0.544560  -0.026346  -0.038810  -0.006359   0.002653   0.003242
     8  H   -0.026346   0.533340  -0.033978   0.002655  -0.003736   0.003052
     9  C   -0.038810  -0.033978   5.207643   0.395315   0.390525   0.334828
    10  H   -0.006359   0.002655   0.395315   0.547451  -0.026383  -0.038484
    11  H    0.002653  -0.003736   0.390525  -0.026383   0.533172  -0.032538
    12  C    0.003242   0.003052   0.334828  -0.038484  -0.032538   4.976819
    13  H   -0.000164  -0.000065  -0.035777  -0.004255   0.001375   0.403371
    14  H   -0.000014   0.000172  -0.054124   0.003883  -0.002510   0.405527
    15  O    0.000004   0.000000  -0.000000   0.000000   0.000000  -0.000000
    16  H    0.000000   0.000000   0.000000  -0.000000  -0.000000   0.000000
    17  H   -0.000000   0.000000   0.000000  -0.000000  -0.000000   0.000000
              13         14         15         16         17
     1  N   -0.033610  -0.047780   0.000009  -0.000000  -0.000001
     2  H   -0.005435   0.005742   0.000009  -0.000000  -0.000001
     3  C    0.006161  -0.001813  -0.001827   0.000080   0.000080
     4  H   -0.000096  -0.000161   0.007441  -0.000226  -0.000224
     5  H   -0.000177   0.003493   0.000007  -0.000001  -0.000001
     6  C    0.003847  -0.000384   0.000018  -0.000003  -0.000001
     7  H   -0.000164  -0.000014   0.000004   0.000000  -0.000000
     8  H   -0.000065   0.000172   0.000000   0.000000   0.000000
     9  C   -0.035777  -0.054124  -0.000000   0.000000   0.000000
    10  H   -0.004255   0.003883   0.000000  -0.000000  -0.000000
    11  H    0.001375  -0.002510   0.000000  -0.000000  -0.000000
    12  C    0.403371   0.405527  -0.000000   0.000000   0.000000
    13  H    0.527229  -0.026977  -0.000000  -0.000000  -0.000000
    14  H   -0.026977   0.550005   0.000000  -0.000000  -0.000000
    15  O   -0.000000   0.000000   8.329814   0.264520   0.265056
    16  H   -0.000000  -0.000000   0.264520   0.318912  -0.018217
    17  H   -0.000000  -0.000000   0.265056  -0.018217   0.316206
 Mulliken charges:
               1
     1  N   -0.658351
     2  H    0.322085
     3  C   -0.179158
     4  H    0.212462
     5  H    0.160797
     6  C   -0.341691
     7  H    0.159675
     8  H    0.162999
     9  C   -0.342643
    10  H    0.157853
    11  H    0.163385
    12  C   -0.153913
    13  H    0.164573
    14  H    0.164940
    15  O   -0.865050
    16  H    0.434935
    17  H    0.437102
 Sum of Mulliken charges =  -0.00000
 Mulliken charges with hydrogens summed into heavy atoms:
               1
     1  N   -0.336266
     3  C    0.194101
     6  C   -0.019017
     9  C   -0.021405
    12  C    0.175599
    15  O    0.006988
 Electronic spatial extent (au):  <R**2>=           1121.4006
 Charge=             -0.0000 electrons
 Dipole moment (field-independent basis, Debye):
    X=              2.3185    Y=              1.3084    Z=             -1.2161  Tot=              2.9268
 Quadrupole moment (field-independent basis, Debye-Ang):
   XX=            -19.2847   YY=            -41.1327   ZZ=            -37.9243
   XY=              0.0233   XZ=             -2.4444   YZ=              1.4332
 Traceless Quadrupole moment (field-independent basis, Debye-Ang):
   XX=             13.4959   YY=             -8.3521   ZZ=             -5.1438
   XY=              0.0233   XZ=             -2.4444   YZ=              1.4332
 Octapole moment (field-independent basis, Debye-Ang**2):
  XXX=            136.9869  YYY=              5.2590  ZZZ=             -2.5189  XYY=             18.9475
  XXY=             -3.3406  XXZ=            -11.9031  XZZ=              4.6220  YZZ=             -1.6161
  YYZ=             -3.4553  XYZ=             -3.2423
 Hexadecapole moment (field-independent basis, Debye-Ang**3):
 XXXX=           -401.4235 YYYY=           -250.2376 ZZZZ=            -88.0794 XXXY=             -1.7376
 XXXZ=            -65.8709 YYYX=             -0.2052 YYYZ=              6.9384 ZZZX=             -3.7441
 ZZZY=              1.9479 XXYY=           -165.3930 XXZZ=           -192.7556 YYZZ=            -51.1160
 XXYZ=             -5.6032 YYXZ=             -4.0410 ZZXY=              2.4516
 N-N= 2.416761944199D+02 E-N=-1.156264885649D+03  KE= 2.866462767097D+02
 1\1\GINC-C401-052\FOpt\RHF\6-31G(d)\C4H11N1O1\TG455515\31-Mar-2021\1\\
 # HF/6-31G* Opt=(Z-matrix,MaxCycles=100) Geom=PrintInputOrient\\<qmtoo
 l> simtype="Geometry optimization" </qmtool> PRLD-DON-H21\\0,1\N,0,0.8
 439999819,0.4560000002,0.9229999781\H,0,1.371999979,0.4950000048,1.797
 9999781\C,0,1.6430000067,1.125,-0.112999998\H,0,2.,2.0969998837,0.2430
 000007\H,0,0.9869999886,1.307000041,-0.9710000157\C,0,2.7790000439,0.1
 529999971,-0.5040000081\H,0,3.6889998913,0.3840000033,0.0590000004\H,0
 ,3.0309998989,0.2220000029,-1.5659999847\C,0,2.2309999466,-1.240000009
 5,-0.1120000035\H,0,2.8659999371,-1.7070000172,0.6470000148\H,0,2.1849
 999428,-1.9279999733,-0.9620000124\C,0,0.8299999833,-0.9409999847,0.46
 90000117\H,0,0.5419999957,-1.6089999676,1.2860000134\H,0,0.0680000037,
 -1.0269999504,-0.3140000105\X,4,1.,3,90.,6,dih,0\O,4,rAH,15,90.,3,180.
 ,0\H,16,0.9572,4,127.74,15,0.,0\H,16,0.9572,4,127.74,15,180.,0\\rAH=2.
 7768107\dih=17.99003233\\Version=ES64L-G16RevA.03\State=1-A\HF=-287.15
 51661\RMSD=2.370e-09\RMSF=5.696e-03\Dipole=0.8780466,0.6924252,0.27478
 97\Quadrupole=-5.2283397,7.8633323,-2.6349926,4.3086307,1.6840826,3.45
 16285\PG=C01 [X(C4H11N1O1)]\\@


 BUT 'GLORY' DOESN'T MEAN 'A NICE KNOCK DOWN ARGUMENT', ALICE OBJECTED.
 WHEN I USE A WORD, HUMPTY DUMPTY SAID, IN A RATHER SCORNFUL TONE,
 IT MEANS JUST WHAT I CHOOSE IT TO MEAN....
 NEITHER MORE NOR LESS....
 THE QUESTION IS, SAID ALICE,
 WHETHER YOU CAN MAKE WORDS MEAN SO MANY DIFFERENT THINGS...
 THE QUESTION IS, SAID HUMPTY DUMPTY,
 WHICH IS TO BE MASTER....
 THAT IS ALL.....

 ALICE THROUGH THE LOOKING GLASS
 Job cpu time:       0 days  0 hours  3 minutes 38.2 seconds.
 Elapsed time:       0 days  0 hours  3 minutes 33.7 seconds.
 File lengths (MBytes):  RWF=     10 Int=      0 D2E=      0 Chk=      2 Scr=      1
 Normal termination of Gaussian 16 at Wed Mar 31 17:10:51 2021.
