 Entering Gaussian System, Link 0=g16
 Initial command:
 /home1/apps/gaussian/16rA.03/g16/l1.exe "/tmp/Gau-131113.inp" -scrdir="/tmp/"
 Entering Link 1 = /home1/apps/gaussian/16rA.03/g16/l1.exe PID=    131114.
  
 Copyright (c) 1988,1990,1992,1993,1995,1998,2003,2009,2016,
            Gaussian, Inc.  All Rights Reserved.
  
 This is part of the Gaussian(R) 16 program.  It is based on
 the Gaussian(R) 09 system (copyright 2009, Gaussian, Inc.),
 the Gaussian(R) 03 system (copyright 2003, Gaussian, Inc.),
 the Gaussian(R) 98 system (copyright 1998, Gaussian, Inc.),
 the Gaussian(R) 94 system (copyright 1995, Gaussian, Inc.),
 the Gaussian 92(TM) system (copyright 1992, Gaussian, Inc.),
 the Gaussian 90(TM) system (copyright 1990, Gaussian, Inc.),
 the Gaussian 88(TM) system (copyright 1988, Gaussian, Inc.),
 the Gaussian 86(TM) system (copyright 1986, Carnegie Mellon
 University), and the Gaussian 82(TM) system (copyright 1983,
 Carnegie Mellon University). Gaussian is a federally registered
 trademark of Gaussian, Inc.
  
 This software contains proprietary and confidential information,
 including trade secrets, belonging to Gaussian, Inc.
  
 This software is provided under written license and may be
 used, copied, transmitted, or stored only in accord with that
 written license.
  
 The following legend is applicable only to US Government
 contracts under FAR:
  
                    RESTRICTED RIGHTS LEGEND
  
 Use, reproduction and disclosure by the US Government is
 subject to restrictions as set forth in subparagraphs (a)
 and (c) of the Commercial Computer Software - Restricted
 Rights clause in FAR 52.227-19.
  
 Gaussian, Inc.
 340 Quinnipiac St., Bldg. 40, Wallingford CT 06492
  
  
 ---------------------------------------------------------------
 Warning -- This program may not be used in any manner that
 competes with the business of Gaussian, Inc. or will provide
 assistance to any competitor of Gaussian, Inc.  The licensee
 of this program is prohibited from giving any competitor of
 Gaussian, Inc. access to this program.  By using this program,
 the user acknowledges that Gaussian, Inc. is engaged in the
 business of creating and licensing software in the field of
 computational chemistry and represents and warrants to the
 licensee that it is not a competitor of Gaussian, Inc. and that
 it will not use this program in any manner prohibited above.
 ---------------------------------------------------------------
  

 Cite this work as:
 Gaussian 16, Revision A.03,
 M. J. Frisch, G. W. Trucks, H. B. Schlegel, G. E. Scuseria, 
 M. A. Robb, J. R. Cheeseman, G. Scalmani, V. Barone, 
 G. A. Petersson, H. Nakatsuji, X. Li, M. Caricato, A. V. Marenich, 
 J. Bloino, B. G. Janesko, R. Gomperts, B. Mennucci, H. P. Hratchian, 
 J. V. Ortiz, A. F. Izmaylov, J. L. Sonnenberg, D. Williams-Young, 
 F. Ding, F. Lipparini, F. Egidi, J. Goings, B. Peng, A. Petrone, 
 T. Henderson, D. Ranasinghe, V. G. Zakrzewski, J. Gao, N. Rega, 
 G. Zheng, W. Liang, M. Hada, M. Ehara, K. Toyota, R. Fukuda, 
 J. Hasegawa, M. Ishida, T. Nakajima, Y. Honda, O. Kitao, H. Nakai, 
 T. Vreven, K. Throssell, J. A. Montgomery, Jr., J. E. Peralta, 
 F. Ogliaro, M. J. Bearpark, J. J. Heyd, E. N. Brothers, K. N. Kudin, 
 V. N. Staroverov, T. A. Keith, R. Kobayashi, J. Normand, 
 K. Raghavachari, A. P. Rendell, J. C. Burant, S. S. Iyengar, 
 J. Tomasi, M. Cossi, J. M. Millam, M. Klene, C. Adamo, R. Cammi, 
 J. W. Ochterski, R. L. Martin, K. Morokuma, O. Farkas, 
 J. B. Foresman, and D. J. Fox, Gaussian, Inc., Wallingford CT, 2016.
 
 ******************************************
 Gaussian 16:  ES64L-G16RevA.03 25-Dec-2016
                31-Mar-2021 
 ******************************************
 %chk=PRLD-DON-H1.chk
 %nproc=1
 Will use up to    1 processors via shared memory.
 %mem=1GB
 --------------------------------------------------------------
 # HF/6-31G* Opt=(Z-matrix,MaxCycles=100) Geom=PrintInputOrient
 --------------------------------------------------------------
 1/6=100,10=7,18=40,38=1/1,3;
 2/9=2000,12=2,17=6,18=5,29=3,40=1/2;
 3/5=1,6=6,7=1,11=9,25=1,30=1,71=1/1,2,3;
 4//1;
 5/5=2,38=5/2;
 6/7=2,8=2,9=2,10=2,28=1/1;
 7/29=1/1,2,3,16;
 1/6=100,10=7,18=40/3(2);
 2/9=2000,29=3/2;
 99//99;
 2/9=2000,29=3/2;
 3/5=1,6=6,7=1,11=9,25=1,30=1,71=1/1,2,3;
 4/5=5,16=3,69=1/1;
 5/5=2,38=5/2;
 7//1,2,3,16;
 1/6=100,18=40/3(-5);
 2/9=2000,29=3/2;
 6/7=2,8=2,9=2,10=2,19=2,28=1/1;
 99/9=1/99;
 --------------------------------------------------------------
 <qmtool> simtype="Geometry optimization" </qmtool> PRLD-DON-H1
 --------------------------------------------------------------
 Symbolic Z-matrix:
 Charge =  0 Multiplicity = 1
 N1                    0.844     0.456     0.923 
 H2                    1.372     0.495     1.798 
 C3                    1.643     1.125    -0.113 
 H4                    2.        2.097     0.243 
 H5                    0.987     1.307    -0.971 
 C6                    2.779     0.153    -0.504 
 H7                    3.689     0.384     0.059 
 H8                    3.031     0.222    -1.566 
 C9                    2.231    -1.24     -0.112 
 H10                   2.866    -1.707     0.647 
 H11                   2.185    -1.928    -0.962 
 C12                   0.83     -0.941     0.469 
 H13                   0.542    -1.609     1.286 
 H14                   0.068    -1.027    -0.314 
 x                    H2    1.       N1    90.      C12  dih      0
 Ow                   H2   rAH      x     90.      N1    180.     0
 H1w                  Ow    0.9572   H2    127.74   x     0.       0
 H2w                  Ow    0.9572   H2    127.74   x     180.     0
       Variables:
  rAH                   2.                       
  dih                   0.                       
 

 GradGradGradGradGradGradGradGradGradGradGradGradGradGradGradGradGradGrad
 Berny optimization.
 Initialization pass.
                       ----------------------------
                       !    Initial Parameters    !
                       ! (Angstroms and Degrees)  !
 ----------------------                            ----------------------
 !      Name          Value   Derivative information (Atomic Units)     !
 ------------------------------------------------------------------------
 !       rAH         2.0      estimate D2E/DX2                          !
 !       dih         0.0      estimate D2E/DX2                          !
 ------------------------------------------------------------------------
 Trust Radius=3.00D-01 FncErr=1.00D-07 GrdErr=1.00D-07 EigMax=2.50D+02 EigMin=1.00D-04
 Number of steps in this run=    100 maximum allowed number of steps=    100.
 GradGradGradGradGradGradGradGradGradGradGradGradGradGradGradGradGradGrad

 ---------------------------------------------------------------------------------------------------
                            Z-MATRIX (ANGSTROMS AND DEGREES)
   CD    Cent   Atom    N1       Length/X        N2       Alpha/Y        N3        Beta/Z          J
 ---------------------------------------------------------------------------------------------------
      1      1  N        0   0.844000          0.456000          0.923000
      2      2  H        0   1.372000          0.495000          1.798000
      3      3  C        0   1.643000          1.125000         -0.113000
      4      4  H        0   2.000000          2.097000          0.243000
      5      5  H        0   0.987000          1.307000         -0.971000
      6      6  C        0   2.779000          0.153000         -0.504000
      7      7  H        0   3.689000          0.384000          0.059000
      8      8  H        0   3.031000          0.222000         -1.566000
      9      9  C        0   2.231000         -1.240000         -0.112000
     10     10  H        0   2.866000         -1.707000          0.647000
     11     11  H        0   2.185000         -1.928000         -0.962000
     12     12  C        0   0.830000         -0.941000          0.469000
     13     13  H        0   0.542000         -1.609000          1.286000
     14     14  H        0   0.068000         -1.027000         -0.314000
     15         X        2   1.000000(    14)      1   90.000(    30)     12    0.000(    45)      0
     16     15  O        2   2.000000(    15)     15   90.000(    31)      1  180.000(    46)      0
     17     16  H       16   0.957200(    16)      2  127.740(    32)     15    0.000(    47)      0
     18     17  H       16   0.957200(    17)      2  127.740(    33)     15  180.000(    48)      0
 ---------------------------------------------------------------------------------------------------
                         Z-Matrix orientation:                         
 ---------------------------------------------------------------------
 Center     Atomic      Atomic             Coordinates (Angstroms)
 Number     Number       Type             X           Y           Z
 ---------------------------------------------------------------------
      1          7           0        0.844000    0.456000    0.923000
      2          1           0        1.372000    0.495000    1.798000
      3          6           0        1.643000    1.125000   -0.113000
      4          1           0        2.000000    2.097000    0.243000
      5          1           0        0.987000    1.307000   -0.971000
      6          6           0        2.779000    0.153000   -0.504000
      7          1           0        3.689000    0.384000    0.059000
      8          1           0        3.031000    0.222000   -1.566000
      9          6           0        2.231000   -1.240000   -0.112000
     10          1           0        2.866000   -1.707000    0.647000
     11          1           0        2.185000   -1.928000   -0.962000
     12          6           0        0.830000   -0.941000    0.469000
     13          1           0        0.542000   -1.609000    1.286000
     14          1           0        0.068000   -1.027000   -0.314000
     15         -1           0        1.527696   -0.491540    1.748020
     16          8           0        2.404554    0.571268    3.509145
     17          1           0        2.824885   -0.153151    3.972577
     18          1           0        2.589177    1.340372    4.048242
 ---------------------------------------------------------------------
                    Distance matrix (angstroms):
                    1          2          3          4          5
     1  N    0.000000
     2  H    1.022707   0.000000
     3  C    1.469441   2.030335   0.000000
     4  H    2.119343   2.319227   1.094974   0.000000
     5  H    2.081318   2.911173   1.095274   1.767502   0.000000
     6  C    2.423296   2.719525   1.545368   2.223508   2.181987
     7  H    2.974173   2.899126   2.182838   2.412664   3.035397
     8  H    3.321573   3.760759   2.202989   2.801975   2.389390
     9  C    2.423099   2.719597   2.437000   3.363771   2.961862
    10  H    2.973757   2.899248   3.177035   3.922192   3.902917
    11  H    3.321891   3.761582   3.214868   4.205577   3.449712
    12  C    1.468986   2.030296   2.295223   3.263345   2.674276
    13  H    2.118301   2.319021   3.262539   4.116801   3.714180
    14  H    2.081258   2.911605   2.674347   3.715138   2.593023
    15  X    1.430360   1.000000   2.467771   3.031286   3.304568
    16  O    3.022707   2.000000   3.742528   3.627564   4.756307
    17  H    3.687125   2.694394   4.440998   4.433211   5.472551
    18  H    3.687125   2.694394   4.272887   3.924217   5.268859
                    6          7          8          9         10
     6  C    0.000000
     7  H    1.094728   0.000000
     8  H    1.093668   1.760634   0.000000
     9  C    1.547390   2.189151   2.211687   0.000000
    10  H    2.189057   2.322790   2.940346   1.094255   0.000000
    11  H    2.212049   2.941054   2.388102   1.094514   1.761103
    12  C    2.437656   3.177673   3.215306   1.545886   2.182598
    13  H    3.363467   3.921886   4.204948   2.223350   2.412240
    14  H    2.962773   3.904061   3.450634   2.182829   3.035577
    15  X    2.655709   2.879339   3.708341   2.124736   2.116754
    16  O    4.052220   3.686241   5.125575   4.052592   3.687182
    17  H    4.487268   4.043676   5.555093   4.268221   3.670913
    18  H    4.708374   4.247153   5.741574   4.908586   4.575101
                   11         12         13         14         15
    11  H    0.000000
    12  C    2.204077   0.000000
    13  H    2.802626   1.093918   0.000000
    14  H    2.390271   1.095960   1.767314   0.000000
    15  X    3.136826   1.524692   1.560056   2.582510   0.000000
    16  O    5.126956   3.742814   3.628367   4.757140   2.236068
    17  H    5.282953   4.107959   3.814283   5.170954   2.597279
    18  H    5.995676   4.594598   4.529868   5.566860   3.126286
                   16         17         18
    16  O    0.000000
    17  H    0.957200   0.000000
    18  H    0.957200   1.513901   0.000000
 Stoichiometry    C4H11NO
 Framework group  C1[X(C4H11NO)]
 Deg. of freedom    45
 Full point group                 C1      NOp   1
 Largest Abelian subgroup         C1      NOp   1
 Largest concise Abelian subgroup C1      NOp   1
                         Standard orientation:                         
 ---------------------------------------------------------------------
 Center     Atomic      Atomic             Coordinates (Angstroms)
 Number     Number       Type             X           Y           Z
 ---------------------------------------------------------------------
      1          7           0       -0.094458    0.068845   -1.083015
      2          1           0       -1.002332    0.035934   -0.613324
      3          6           0        0.668485    1.184496   -0.506389
      4          1           0        0.058853    2.093553   -0.475833
      5          1           0        1.520543    1.379068   -1.166512
      6          6           0        1.162087    0.722508    0.883246
      7          1           0        0.472028    1.058343    1.663927
      8          1           0        2.146875    1.131614    1.126011
      9          6           0        1.167477   -0.821689    0.784036
     10          1           0        0.480568   -1.259628    1.514625
     11          1           0        2.156205   -1.251545    0.972721
     12          6           0        0.675911   -1.105978   -0.653777
     13          1           0        0.073099   -2.014749   -0.739851
     14          1           0        1.529467   -1.208555   -1.333520
     15          8           0       -2.777767   -0.028426    0.305202
     16          1           0       -3.096630   -0.690887    0.918149
     17          1           0       -3.499100    0.596327    0.230403
 ---------------------------------------------------------------------
 Rotational constants (GHZ):           4.2234994           1.9451946           1.8805327
 Standard basis: 6-31G(d) (6D, 7F)
 There are   112 symmetry adapted cartesian basis functions of A   symmetry.
 There are   112 symmetry adapted basis functions of A   symmetry.
   112 basis functions,   212 primitive gaussians,   112 cartesian basis functions
    25 alpha electrons       25 beta electrons
       nuclear repulsion energy       255.1927030317 Hartrees.
 NAtoms=   17 NActive=   17 NUniq=   17 SFac= 1.00D+00 NAtFMM=   60 NAOKFM=F Big=F
 Integral buffers will be    131072 words long.
 Raffenetti 1 integral format.
 Two-electron integral symmetry is turned on.
 One-electron integrals computed using PRISM.
 NBasis=   112 RedAO= T EigKep=  3.15D-03  NBF=   112
 NBsUse=   112 1.00D-06 EigRej= -1.00D+00 NBFU=   112
 ExpMin= 1.61D-01 ExpMax= 5.48D+03 ExpMxC= 8.25D+02 IAcc=3 IRadAn=         5 AccDes= 0.00D+00
 Harris functional with IExCor=  205 and IRadAn=       5 diagonalized for initial guess.
 HarFok:  IExCor=  205 AccDes= 0.00D+00 IRadAn=         5 IDoV= 1 UseB2=F ITyADJ=14
 ICtDFT=  3500011 ScaDFX=  1.000000  1.000000  1.000000  1.000000
 FoFCou: FMM=F IPFlag=           0 FMFlag=      100000 FMFlg1=           0
         NFxFlg=           0 DoJE=T BraDBF=F KetDBF=T FulRan=T
         wScrn=  0.000000 ICntrl=       500 IOpCl=  0 I1Cent=   200000004 NGrid=           0
         NMat0=    1 NMatS0=      1 NMatT0=    0 NMatD0=    1 NMtDS0=    0 NMtDT0=    0
 Petite list used in FoFCou.
 Keep R1 ints in memory in canonical form, NReq=20925455.
 Requested convergence on RMS density matrix=1.00D-08 within 128 cycles.
 Requested convergence on MAX density matrix=1.00D-06.
 Requested convergence on             energy=1.00D-06.
 No special actions if energy rises.
 SCF Done:  E(RHF) =  -287.156255488     A.U. after   11 cycles
            NFock= 11  Conv=0.96D-08     -V/T= 2.0017

 **********************************************************************

            Population analysis using the SCF density.

 **********************************************************************

 Orbital symmetries:
       Occupied  (A) (A) (A) (A) (A) (A) (A) (A) (A) (A) (A) (A)
                 (A) (A) (A) (A) (A) (A) (A) (A) (A) (A) (A) (A)
                 (A)
       Virtual   (A) (A) (A) (A) (A) (A) (A) (A) (A) (A) (A) (A)
                 (A) (A) (A) (A) (A) (A) (A) (A) (A) (A) (A) (A)
                 (A) (A) (A) (A) (A) (A) (A) (A) (A) (A) (A) (A)
                 (A) (A) (A) (A) (A) (A) (A) (A) (A) (A) (A) (A)
                 (A) (A) (A) (A) (A) (A) (A) (A) (A) (A) (A) (A)
                 (A) (A) (A) (A) (A) (A) (A) (A) (A) (A) (A) (A)
                 (A) (A) (A) (A) (A) (A) (A) (A) (A) (A) (A) (A)
                 (A) (A) (A)
 The electronic state is 1-A.
 Alpha  occ. eigenvalues --  -20.58274 -15.51079 -11.22533 -11.22490 -11.20556
 Alpha  occ. eigenvalues --  -11.20454  -1.36442  -1.19409  -1.00291  -0.95255
 Alpha  occ. eigenvalues --   -0.79642  -0.76846  -0.72861  -0.66072  -0.62138
 Alpha  occ. eigenvalues --   -0.60452  -0.56724  -0.56516  -0.52046  -0.48672
 Alpha  occ. eigenvalues --   -0.47135  -0.46437  -0.46018  -0.44350  -0.34917
 Alpha virt. eigenvalues --    0.18626   0.24480   0.26227   0.28708   0.30446
 Alpha virt. eigenvalues --    0.30875   0.33851   0.35102   0.35194   0.36508
 Alpha virt. eigenvalues --    0.37886   0.40332   0.41923   0.47388   0.49941
 Alpha virt. eigenvalues --    0.54078   0.74322   0.77651   0.77919   0.81194
 Alpha virt. eigenvalues --    0.81821   0.85832   0.92056   0.93443   0.94353
 Alpha virt. eigenvalues --    0.96218   1.00084   1.03875   1.04132   1.10429
 Alpha virt. eigenvalues --    1.12539   1.13672   1.14271   1.14883   1.16039
 Alpha virt. eigenvalues --    1.17020   1.18768   1.21114   1.22385   1.22731
 Alpha virt. eigenvalues --    1.25358   1.25501   1.27437   1.36568   1.41715
 Alpha virt. eigenvalues --    1.51274   1.54090   1.57123   1.60919   1.65376
 Alpha virt. eigenvalues --    1.71419   1.92720   2.01087   2.02533   2.04188
 Alpha virt. eigenvalues --    2.09811   2.13961   2.15117   2.16645   2.21639
 Alpha virt. eigenvalues --    2.24035   2.31254   2.34531   2.36976   2.44846
 Alpha virt. eigenvalues --    2.45120   2.46140   2.52792   2.58839   2.60756
 Alpha virt. eigenvalues --    2.60902   2.72936   2.76016   2.84720   2.91337
 Alpha virt. eigenvalues --    2.92785   2.97544   3.00450   3.00728   3.04498
 Alpha virt. eigenvalues --    3.26116   4.07187   4.49727   4.62625   4.69618
 Alpha virt. eigenvalues --    4.88042   5.05846
          Condensed to atoms (all electrons):
               1          2          3          4          5          6
     1  N    7.116913   0.317787   0.301651  -0.033545  -0.048962  -0.085603
     2  H    0.317787   0.339275  -0.037182  -0.004686   0.004761  -0.000092
     3  C    0.301651  -0.037182   4.958269   0.402927   0.405981   0.335026
     4  H   -0.033545  -0.004686   0.402927   0.533867  -0.028587  -0.035583
     5  H   -0.048962   0.004761   0.405981  -0.028587   0.562543  -0.055613
     6  C   -0.085603  -0.000092   0.335026  -0.035583  -0.055613   5.201499
     7  H    0.002678   0.000652  -0.037262  -0.004393   0.003931   0.394793
     8  H    0.004499  -0.000028  -0.032794   0.001457  -0.002542   0.389167
     9  C   -0.086087  -0.000070  -0.062612   0.003897  -0.000431   0.326596
    10  H    0.002729   0.000667   0.003341  -0.000161  -0.000019  -0.038556
    11  H    0.004507  -0.000029   0.003084  -0.000067   0.000180  -0.034168
    12  C    0.302324  -0.036808  -0.095840   0.006333  -0.001873  -0.062305
    13  H   -0.033768  -0.004679   0.006354  -0.000119  -0.000191   0.003888
    14  H   -0.049039   0.004746  -0.001818  -0.000187   0.003735  -0.000481
    15  O   -0.010631   0.008880   0.000916   0.000206  -0.000007  -0.000138
    16  H    0.000543   0.000089  -0.000035  -0.000009   0.000001   0.000005
    17  H    0.000511   0.000097  -0.000046  -0.000012   0.000001   0.000000
               7          8          9         10         11         12
     1  N    0.002678   0.004499  -0.086087   0.002729   0.004507   0.302324
     2  H    0.000652  -0.000028  -0.000070   0.000667  -0.000029  -0.036808
     3  C   -0.037262  -0.032794  -0.062612   0.003341   0.003084  -0.095840
     4  H   -0.004393   0.001457   0.003897  -0.000161  -0.000067   0.006333
     5  H    0.003931  -0.002542  -0.000431  -0.000019   0.000180  -0.001873
     6  C    0.394793   0.389167   0.326596  -0.038556  -0.034168  -0.062305
     7  H    0.547096  -0.027230  -0.037962  -0.006590   0.002717   0.003247
     8  H   -0.027230   0.540693  -0.034329   0.002744  -0.003713   0.003076
     9  C   -0.037962  -0.034329   5.201339   0.394439   0.389369   0.334924
    10  H   -0.006590   0.002744   0.394439   0.554829  -0.027422  -0.037955
    11  H    0.002717  -0.003713   0.389369  -0.027422   0.539798  -0.032551
    12  C    0.003247   0.003076   0.334924  -0.037955  -0.032551   4.959163
    13  H   -0.000160  -0.000067  -0.035995  -0.004409   0.001446   0.403103
    14  H   -0.000022   0.000180  -0.055458   0.003964  -0.002556   0.406245
    15  O    0.000296   0.000001  -0.000057   0.000138   0.000001   0.000799
    16  H   -0.000004  -0.000000   0.000020   0.000036  -0.000000  -0.000074
    17  H   -0.000001  -0.000000   0.000002  -0.000002  -0.000000  -0.000024
              13         14         15         16         17
     1  N   -0.033768  -0.049039  -0.010631   0.000543   0.000511
     2  H   -0.004679   0.004746   0.008880   0.000089   0.000097
     3  C    0.006354  -0.001818   0.000916  -0.000035  -0.000046
     4  H   -0.000119  -0.000187   0.000206  -0.000009  -0.000012
     5  H   -0.000191   0.003735  -0.000007   0.000001   0.000001
     6  C    0.003888  -0.000481  -0.000138   0.000005   0.000000
     7  H   -0.000160  -0.000022   0.000296  -0.000004  -0.000001
     8  H   -0.000067   0.000180   0.000001  -0.000000  -0.000000
     9  C   -0.035995  -0.055458  -0.000057   0.000020   0.000002
    10  H   -0.004409   0.003964   0.000138   0.000036  -0.000002
    11  H    0.001446  -0.002556   0.000001  -0.000000  -0.000000
    12  C    0.403103   0.406245   0.000799  -0.000074  -0.000024
    13  H    0.533568  -0.028312   0.000221  -0.000022  -0.000006
    14  H   -0.028312   0.561239  -0.000009   0.000002   0.000000
    15  O    0.000221  -0.000009   8.343868   0.264184   0.264903
    16  H   -0.000022   0.000002   0.264184   0.308636  -0.017070
    17  H   -0.000006   0.000000   0.264903  -0.017070   0.305527
 Mulliken charges:
               1
     1  N   -0.706507
     2  H    0.406620
     3  C   -0.149960
     4  H    0.158661
     5  H    0.157094
     6  C   -0.338435
     7  H    0.158215
     8  H    0.158886
     9  C   -0.337584
    10  H    0.152227
    11  H    0.159405
    12  C   -0.151785
    13  H    0.159147
    14  H    0.157771
    15  O   -0.873572
    16  H    0.443698
    17  H    0.446119
 Sum of Mulliken charges =  -0.00000
 Mulliken charges with hydrogens summed into heavy atoms:
               1
     1  N   -0.299887
     3  C    0.165795
     6  C   -0.021334
     9  C   -0.025952
    12  C    0.165133
    15  O    0.016245
 Electronic spatial extent (au):  <R**2>=            777.0431
 Charge=             -0.0000 electrons
 Dipole moment (field-independent basis, Debye):
    X=             -2.6209    Y=             -0.1542    Z=              2.6376  Tot=              3.7215
 Quadrupole moment (field-independent basis, Debye-Ang):
   XX=            -24.6500   YY=            -36.9762   ZZ=            -43.2222
   XY=             -0.3404   XZ=             -5.0020   YZ=             -0.8886
 Traceless Quadrupole moment (field-independent basis, Debye-Ang):
   XX=             10.2994   YY=             -2.0267   ZZ=             -8.2727
   XY=             -0.3404   XZ=             -5.0020   YZ=             -0.8886
 Octapole moment (field-independent basis, Debye-Ang**2):
  XXX=            -74.7988  YYY=             -0.0961  ZZZ=              9.8966  XYY=            -12.1550
  XXY=              3.3900  XXZ=             12.8272  XZZ=             -8.6957  YZZ=             -1.9341
  YYZ=              0.3587  XYZ=              3.6608
 Hexadecapole moment (field-independent basis, Debye-Ang**3):
 XXXX=           -293.6947 YYYY=           -235.6089 ZZZZ=           -219.6631 XXXY=            -17.1240
 XXXZ=            -55.5994 YYYX=              0.7867 YYYZ=             -1.0676 ZZZX=            -16.8825
 ZZZY=             -0.8442 XXYY=           -110.7249 XXZZ=           -111.1875 YYZZ=            -73.1974
 XXYZ=            -11.1178 YYXZ=             -6.1965 ZZXY=              4.3655
 N-N= 2.551927030317D+02 E-N=-1.183404101119D+03  KE= 2.866583171177D+02
 Calling FoFJK, ICntrl=      2127 FMM=F ISym2X=0 I1Cent= 0 IOpClX= 0 NMat=1 NMatS=1 NMatT=0.
 ***** Axes restored to original set *****
 -------------------------------------------------------------------
 Center     Atomic                   Forces (Hartrees/Bohr)
 Number     Number              X              Y              Z
 -------------------------------------------------------------------
      1        7           0.017502215   -0.005435512    0.003827350
      2        1          -0.012853577    0.000600201   -0.015562165
      3        6          -0.007068865    0.004591321    0.003205843
      4        1          -0.002153890   -0.007165834   -0.002818067
      5        1           0.004753346   -0.000041320    0.004115541
      6        6           0.005617751    0.002953872   -0.001822543
      7        1          -0.005397630   -0.001556899   -0.003503546
      8        1          -0.001263007   -0.000409609    0.005961436
      9        6           0.001312405   -0.006144800   -0.000143793
     10        1          -0.003176705    0.002443049   -0.004573258
     11        1           0.000453569    0.003977908    0.005374174
     12        6          -0.007724668    0.003424238    0.002571702
     13        1           0.002105559    0.004101643   -0.005550092
     14        1           0.004677232   -0.001188573    0.004769538
     15        8           0.011740773    0.000164535    0.017111554
     16        1          -0.005004895    0.006113346   -0.006019385
     17        1          -0.003519613   -0.006427565   -0.006944288
 -------------------------------------------------------------------
 Cartesian Forces:  Max     0.017502215 RMS     0.006256856
 -----------------------------------------------------------------------------------------------
                       Internal Coordinate Forces (Hartree/Bohr or radian)
  Cent   Atom   N1       Length/X         N2         Alpha/Y        N3         Beta/Z          J
 -----------------------------------------------------------------------------------------------
      1  N            0.016647(     1)     -0.005314(    19)      0.004338(    37)
      2  H           -0.008904(     2)      0.000306(    20)     -0.011850(    38)
      3  C           -0.007069(     3)      0.004591(    21)      0.003206(    39)
      4  H           -0.002154(     4)     -0.007166(    22)     -0.002818(    40)
      5  H            0.004753(     5)     -0.000041(    23)      0.004116(    41)
      6  C            0.005618(     6)      0.002954(    24)     -0.001823(    42)
      7  H           -0.005398(     7)     -0.001557(    25)     -0.003504(    43)
      8  H           -0.001263(     8)     -0.000410(    26)      0.005961(    44)
      9  C            0.001312(     9)     -0.006145(    27)     -0.000144(    45)
     10  H           -0.003177(    10)      0.002443(    28)     -0.004573(    46)
     11  H            0.000454(    11)      0.003978(    29)      0.005374(    47)
     12  C           -0.007603(    12)      0.003447(    30)      0.002497(    48)
     13  H            0.002106(    13)      0.004102(    31)     -0.005550(    49)
     14  H            0.004677(    14)     -0.001189(    32)      0.004770(    50)
         X        2  -0.000000(    15)      1  -0.000539(    33)     12   0.000382(    51)     0
     15  O        2   0.005204(    16)     15  -0.000539(    34)      1   0.001461(    52)     0
     16  H       16  -0.009739(    17)      2  -0.003522(    35)     15  -0.000202(    53)     0
     17  H       16  -0.009754(    18)      2  -0.004650(    36)     15   0.000584(    54)     0
 -----------------------------------------------------------------------------------------------
 Internal  Forces:  Max     0.016647065 RMS     0.005097693

 GradGradGradGradGradGradGradGradGradGradGradGradGradGradGradGradGradGrad
 Berny optimization.
 Search for a local minimum.
 Step number   1 out of a maximum of  100
 All quantities printed in internal units (Hartrees-Bohrs-Radians)
 Second derivative matrix not updated -- first step.
 The second derivative matrix:
                          rAH       dih
           rAH          0.04307
           dih         -0.00000  -0.00000
 ITU=  0
     Eigenvalues ---    0.00000   0.04307
 RFO step:  Lambda=-7.99417496D-04 EMin= 0.00000000D+00
 Linear search not attempted -- first point.
 Maximum step size (   0.300) exceeded in Quadratic search.
    -- Step size scaled by   0.610
 Variable       Old X    -DE/DX   Delta X   Delta X   Delta X     New X
                                 (Linear)    (Quad)   (Total)
   rAH        3.77945   0.00520   0.00000   0.07236   0.07236   3.85181
   dih        0.00000   0.00038   0.00000   0.29114   0.29114   0.29114
         Item               Value     Threshold  Converged?
 Maximum Force            0.005204     0.000450     NO 
 RMS     Force            0.003689     0.000300     NO 
 Maximum Displacement     0.291143     0.001800     NO 
 RMS     Displacement     0.212132     0.001200     NO 
 Predicted change in Energy=-3.748721D-04
 GradGradGradGradGradGradGradGradGradGradGradGradGradGradGradGradGradGrad

 ---------------------------------------------------------------------------------------------------
                            Z-MATRIX (ANGSTROMS AND DEGREES)
   CD    Cent   Atom    N1       Length/X        N2       Alpha/Y        N3        Beta/Z          J
 ---------------------------------------------------------------------------------------------------
      1      1  N        0   0.844000          0.456000          0.923000
      2      2  H        0   1.372000          0.495000          1.798000
      3      3  C        0   1.643000          1.125000         -0.113000
      4      4  H        0   2.000000          2.097000          0.243000
      5      5  H        0   0.987000          1.307000         -0.971000
      6      6  C        0   2.779000          0.153000         -0.504000
      7      7  H        0   3.689000          0.384000          0.059000
      8      8  H        0   3.031000          0.222000         -1.566000
      9      9  C        0   2.231000         -1.240000         -0.112000
     10     10  H        0   2.866000         -1.707000          0.647000
     11     11  H        0   2.185000         -1.928000         -0.962000
     12     12  C        0   0.830000         -0.941000          0.469000
     13     13  H        0   0.542000         -1.609000          1.286000
     14     14  H        0   0.068000         -1.027000         -0.314000
     15         X        2   1.000000(    14)      1   90.000(    30)     12   16.681(    45)      0
     16     15  O        2   2.038289(    15)     15   90.000(    31)      1  180.000(    46)      0
     17     16  H       16   0.957200(    16)      2  127.740(    32)     15    0.000(    47)      0
     18     17  H       16   0.957200(    17)      2  127.740(    33)     15  180.000(    48)      0
 ---------------------------------------------------------------------------------------------------
                         Z-Matrix orientation:                         
 ---------------------------------------------------------------------
 Center     Atomic      Atomic             Coordinates (Angstroms)
 Number     Number       Type             X           Y           Z
 ---------------------------------------------------------------------
      1          7           0        0.844000    0.456000    0.923000
      2          1           0        1.372000    0.495000    1.798000
      3          6           0        1.643000    1.125000   -0.113000
      4          1           0        2.000000    2.097000    0.243000
      5          1           0        0.987000    1.307000   -0.971000
      6          6           0        2.779000    0.153000   -0.504000
      7          1           0        3.689000    0.384000    0.059000
      8          1           0        3.031000    0.222000   -1.566000
      9          6           0        2.231000   -1.240000   -0.112000
     10          1           0        2.866000   -1.707000    0.647000
     11          1           0        2.185000   -1.928000   -0.962000
     12          6           0        0.830000   -0.941000    0.469000
     13          1           0        0.542000   -1.609000    1.286000
     14          1           0        0.068000   -1.027000   -0.314000
     15         -1           0        1.762881   -0.404378    1.602218
     16          8           0        2.424322    0.572728    3.541904
     17          1           0        3.022676   -0.085714    3.894971
     18          1           0        2.430922    1.275855    4.191366
 ---------------------------------------------------------------------
                    Distance matrix (angstroms):
                    1          2          3          4          5
     1  N    0.000000
     2  H    1.022707   0.000000
     3  C    1.469441   2.030335   0.000000
     4  H    2.119343   2.319227   1.094974   0.000000
     5  H    2.081318   2.911173   1.095274   1.767502   0.000000
     6  C    2.423296   2.719525   1.545368   2.223508   2.181987
     7  H    2.974173   2.899126   2.182838   2.412664   3.035397
     8  H    3.321573   3.760759   2.202989   2.801975   2.389390
     9  C    2.423099   2.719597   2.437000   3.363771   2.961862
    10  H    2.973757   2.899248   3.177035   3.922192   3.902917
    11  H    3.321891   3.761582   3.214868   4.205577   3.449712
    12  C    1.468986   2.030296   2.295223   3.263345   2.674276
    13  H    2.118301   2.319021   3.262539   4.116801   3.714180
    14  H    2.081258   2.911605   2.674347   3.715138   2.593023
    15  X    1.430360   1.000000   2.301161   2.856675   3.186261
    16  O    3.060997   2.038289   3.778067   3.658718   4.792844
    17  H    3.724607   2.731163   4.408307   4.375729   5.455393
    18  H    3.724607   2.731163   4.378487   4.055807   5.360588
                    6          7          8          9         10
     6  C    0.000000
     7  H    1.094728   0.000000
     8  H    1.093668   1.760634   0.000000
     9  C    1.547390   2.189151   2.211687   0.000000
    10  H    2.189057   2.322790   2.940346   1.094255   0.000000
    11  H    2.212049   2.941054   2.388102   1.094514   1.761103
    12  C    2.437656   3.177673   3.215306   1.545886   2.182598
    13  H    3.363467   3.921886   4.204948   2.223350   2.412240
    14  H    2.962773   3.904061   3.450634   2.182829   3.035577
    15  X    2.404022   2.590945   3.469594   1.963655   1.956051
    16  O    4.083051   3.710209   5.155750   4.083427   3.711160
    17  H    4.412178   3.921645   5.469640   4.244402   3.633515
    18  H    4.840292   4.410739   5.883704   4.988833   4.652875
                   11         12         13         14         15
    11  H    0.000000
    12  C    2.204077   0.000000
    13  H    2.802626   1.093918   0.000000
    14  H    2.390271   1.095960   1.767314   0.000000
    15  X    3.012444   1.562822   1.744035   2.632901   0.000000
    16  O    5.157138   3.778356   3.659532   4.793681   2.270380
    17  H    5.261738   4.156516   3.909077   5.227961   2.635403
    18  H    6.073084   4.618810   4.509054   5.584341   3.158030
                   16         17         18
    16  O    0.000000
    17  H    0.957200   0.000000
    18  H    0.957200   1.513901   0.000000
 Stoichiometry    C4H11NO
 Framework group  C1[X(C4H11NO)]
 Deg. of freedom    45
 Full point group                 C1      NOp   1
 Largest Abelian subgroup         C1      NOp   1
 Largest concise Abelian subgroup C1      NOp   1
                         Standard orientation:                         
 ---------------------------------------------------------------------
 Center     Atomic      Atomic             Coordinates (Angstroms)
 Number     Number       Type             X           Y           Z
 ---------------------------------------------------------------------
      1          7           0       -0.081490    0.079864   -1.086274
      2          1           0       -0.992018    0.042701   -0.622067
      3          6           0        0.678595    1.189436   -0.494346
      4          1           0        0.069138    2.098406   -0.458249
      5          1           0        1.534444    1.390158   -1.147689
      6          6           0        1.164162    0.713524    0.893420
      7          1           0        0.469825    1.041922    1.673472
      8          1           0        2.147713    1.119790    1.145777
      9          6           0        1.169539   -0.829619    0.778981
     10          1           0        0.478347   -1.274463    1.501313
     11          1           0        2.157024   -1.261742    0.968991
     12          6           0        0.686003   -1.099473   -0.664326
     13          1           0        0.083349   -2.007091   -0.762783
     14          1           0        1.543350   -1.195692   -1.340216
     15          8           0       -2.806730   -0.031366    0.303112
     16          1           0       -3.056902   -0.560012    1.060859
     17          1           0       -3.599793    0.454699    0.077230
 ---------------------------------------------------------------------
 Rotational constants (GHZ):           4.2175816           1.9154326           1.8582904
 Standard basis: 6-31G(d) (6D, 7F)
 There are   112 symmetry adapted cartesian basis functions of A   symmetry.
 There are   112 symmetry adapted basis functions of A   symmetry.
   112 basis functions,   212 primitive gaussians,   112 cartesian basis functions
    25 alpha electrons       25 beta electrons
       nuclear repulsion energy       254.6757544430 Hartrees.
 NAtoms=   17 NActive=   17 NUniq=   17 SFac= 1.00D+00 NAtFMM=   60 NAOKFM=F Big=F
 Integral buffers will be    131072 words long.
 Raffenetti 1 integral format.
 Two-electron integral symmetry is turned on.
 One-electron integrals computed using PRISM.
 NBasis=   112 RedAO= T EigKep=  3.15D-03  NBF=   112
 NBsUse=   112 1.00D-06 EigRej= -1.00D+00 NBFU=   112
 Initial guess from the checkpoint file:  "PRLD-DON-H1.chk"
 B after Tr=     0.000000   -0.000000   -0.000000
         Rot=    0.999994   -0.002986    0.001627   -0.000343 Ang=  -0.39 deg.
 ExpMin= 1.61D-01 ExpMax= 5.48D+03 ExpMxC= 8.25D+02 IAcc=2 IRadAn=         4 AccDes= 0.00D+00
 Harris functional with IExCor=  205 and IRadAn=       4 diagonalized for initial guess.
 HarFok:  IExCor=  205 AccDes= 0.00D+00 IRadAn=         4 IDoV= 1 UseB2=F ITyADJ=14
 ICtDFT=  3500011 ScaDFX=  1.000000  1.000000  1.000000  1.000000
 FoFCou: FMM=F IPFlag=           0 FMFlag=      100000 FMFlg1=           0
         NFxFlg=           0 DoJE=T BraDBF=F KetDBF=T FulRan=T
         wScrn=  0.000000 ICntrl=       500 IOpCl=  0 I1Cent=   200000004 NGrid=           0
         NMat0=    1 NMatS0=      1 NMatT0=    0 NMatD0=    1 NMtDS0=    0 NMtDT0=    0
 Petite list used in FoFCou.
 Keep R1 ints in memory in canonical form, NReq=20925316.
 Requested convergence on RMS density matrix=1.00D-08 within 128 cycles.
 Requested convergence on MAX density matrix=1.00D-06.
 Requested convergence on             energy=1.00D-06.
 No special actions if energy rises.
 SCF Done:  E(RHF) =  -287.156701647     A.U. after   11 cycles
            NFock= 11  Conv=0.70D-08     -V/T= 2.0018
 Calling FoFJK, ICntrl=      2127 FMM=F ISym2X=0 I1Cent= 0 IOpClX= 0 NMat=1 NMatS=1 NMatT=0.
 ***** Axes restored to original set *****
 -------------------------------------------------------------------
 Center     Atomic                   Forces (Hartrees/Bohr)
 Number     Number              X              Y              Z
 -------------------------------------------------------------------
      1        7           0.017637865   -0.005430383    0.004051992
      2        1          -0.012413535    0.000601276   -0.014947738
      3        6          -0.006926632    0.004893091    0.003204266
      4        1          -0.002170632   -0.007264738   -0.002799228
      5        1           0.004723506   -0.000114759    0.004149470
      6        6           0.005526598    0.002939572   -0.001846230
      7        1          -0.005347915   -0.001485116   -0.003528969
      8        1          -0.001244290   -0.000401199    0.005991581
      9        6           0.001240181   -0.006081528   -0.000194131
     10        1          -0.003187693    0.002350735   -0.004552350
     11        1           0.000469042    0.003972843    0.005409120
     12        6          -0.007807306    0.003145569    0.002739307
     13        1           0.002161909    0.004183326   -0.005583484
     14        1           0.004708981   -0.001107793    0.004758743
     15        8           0.011181116    0.000131809    0.016196410
     16        1          -0.006487810    0.005619622   -0.005054568
     17        1          -0.002063384   -0.005952325   -0.007994192
 -------------------------------------------------------------------
 Cartesian Forces:  Max     0.017637865 RMS     0.006157358
 -----------------------------------------------------------------------------------------------
                       Internal Coordinate Forces (Hartree/Bohr or radian)
  Cent   Atom   N1       Length/X         N2         Alpha/Y        N3         Beta/Z          J
 -----------------------------------------------------------------------------------------------
      1  N            0.016868(     1)     -0.005352(    19)      0.004513(    37)
      2  H           -0.009132(     2)      0.000300(    20)     -0.012189(    38)
      3  C           -0.006927(     3)      0.004893(    21)      0.003204(    39)
      4  H           -0.002171(     4)     -0.007265(    22)     -0.002799(    40)
      5  H            0.004724(     5)     -0.000115(    23)      0.004149(    41)
      6  C            0.005527(     6)      0.002940(    24)     -0.001846(    42)
      7  H           -0.005348(     7)     -0.001485(    25)     -0.003529(    43)
      8  H           -0.001244(     8)     -0.000401(    26)      0.005992(    44)
      9  C            0.001240(     9)     -0.006082(    27)     -0.000194(    45)
     10  H           -0.003188(    10)      0.002351(    28)     -0.004552(    46)
     11  H            0.000469(    11)      0.003973(    29)      0.005409(    47)
     12  C           -0.007689(    12)      0.003168(    30)      0.002667(    48)
     13  H            0.002162(    13)      0.004183(    31)     -0.005583(    49)
     14  H            0.004709(    14)     -0.001108(    32)      0.004759(    50)
         X        2   0.000000(    15)      1  -0.000780(    33)     12   0.000371(    51)     0
     15  O        2   0.004043(    16)     15  -0.000780(    34)      1   0.001121(    52)     0
     16  H       16  -0.009786(    17)      2  -0.003363(    35)     15  -0.000106(    53)     0
     17  H       16  -0.009811(    18)      2  -0.004865(    36)     15   0.000477(    54)     0
 -----------------------------------------------------------------------------------------------
 Internal  Forces:  Max     0.016868268 RMS     0.005124740

 GradGradGradGradGradGradGradGradGradGradGradGradGradGradGradGradGradGrad
 Berny optimization.
 Search for a local minimum.
 Step number   2 out of a maximum of  100
 All quantities printed in internal units (Hartrees-Bohrs-Radians)
 Update second derivatives using D2CorN and points    1    2
 DE= -4.46D-04 DEPred=-3.75D-04 R= 1.19D+00
 TightC=F SS=  1.41D+00  RLast= 3.00D-01 DXNew= 5.0454D-01 9.0000D-01
 Trust test= 1.19D+00 RLast= 3.00D-01 DXMaxT set to 5.05D-01
 The second derivative matrix:
                          rAH       dih
           rAH          0.04149
           dih         -0.00316   0.00003
 ITU=  1  0
 Linear search step of   0.600 exceeds DXMaxT=   0.505 but not scaled.
 Quartic linear search produced a step of  2.00000.
 Variable       Old X    -DE/DX   Delta X   Delta X   Delta X     New X
                                 (Linear)    (Quad)   (Total)
   rAH        3.85181   0.00404   0.14471   0.00000   0.14471   3.99652
   dih        0.29114   0.00037   0.58229   0.00000   0.58229   0.87343
         Item               Value     Threshold  Converged?
 Maximum Force            0.004043     0.000450     NO 
 RMS     Force            0.002871     0.000300     NO 
 Maximum Displacement     0.582287     0.001800     NO 
 RMS     Displacement     0.424264     0.001200     NO 
 Predicted change in Energy=-6.270592D-04
 GradGradGradGradGradGradGradGradGradGradGradGradGradGradGradGradGradGrad

 ---------------------------------------------------------------------------------------------------
                            Z-MATRIX (ANGSTROMS AND DEGREES)
   CD    Cent   Atom    N1       Length/X        N2       Alpha/Y        N3        Beta/Z          J
 ---------------------------------------------------------------------------------------------------
      1      1  N        0   0.844000          0.456000          0.923000
      2      2  H        0   1.372000          0.495000          1.798000
      3      3  C        0   1.643000          1.125000         -0.113000
      4      4  H        0   2.000000          2.097000          0.243000
      5      5  H        0   0.987000          1.307000         -0.971000
      6      6  C        0   2.779000          0.153000         -0.504000
      7      7  H        0   3.689000          0.384000          0.059000
      8      8  H        0   3.031000          0.222000         -1.566000
      9      9  C        0   2.231000         -1.240000         -0.112000
     10     10  H        0   2.866000         -1.707000          0.647000
     11     11  H        0   2.185000         -1.928000         -0.962000
     12     12  C        0   0.830000         -0.941000          0.469000
     13     13  H        0   0.542000         -1.609000          1.286000
     14     14  H        0   0.068000         -1.027000         -0.314000
     15         X        2   1.000000(    14)      1   90.000(    30)     12   50.044(    45)      0
     16     15  O        2   2.114868(    15)     15   90.000(    31)      1  180.000(    46)      0
     17     16  H       16   0.957200(    16)      2  127.740(    32)     15    0.000(    47)      0
     18     17  H       16   0.957200(    17)      2  127.740(    33)     15  180.000(    48)      0
 ---------------------------------------------------------------------------------------------------
                         Z-Matrix orientation:                         
 ---------------------------------------------------------------------
 Center     Atomic      Atomic             Coordinates (Angstroms)
 Number     Number       Type             X           Y           Z
 ---------------------------------------------------------------------
      1          7           0        0.844000    0.456000    0.923000
      2          1           0        1.372000    0.495000    1.798000
      3          6           0        1.643000    1.125000   -0.113000
      4          1           0        2.000000    2.097000    0.243000
      5          1           0        0.987000    1.307000   -0.971000
      6          6           0        2.779000    0.153000   -0.504000
      7          1           0        3.689000    0.384000    0.059000
      8          1           0        3.031000    0.222000   -1.566000
      9          6           0        2.231000   -1.240000   -0.112000
     10          1           0        2.866000   -1.707000    0.647000
     11          1           0        2.185000   -1.928000   -0.962000
     12          6           0        0.830000   -0.941000    0.469000
     13          1           0        0.542000   -1.609000    1.286000
     14          1           0        0.068000   -1.027000   -0.314000
     15         -1           0        2.117527   -0.016668    1.370934
     16          8           0        2.463857    0.575649    3.607423
     17          1           0        3.330662    0.210683    3.785419
     18          1           0        2.202008    0.985298    4.431956
 ---------------------------------------------------------------------
                    Distance matrix (angstroms):
                    1          2          3          4          5
     1  N    0.000000
     2  H    1.022707   0.000000
     3  C    1.469441   2.030335   0.000000
     4  H    2.119343   2.319227   1.094974   0.000000
     5  H    2.081318   2.911173   1.095274   1.767502   0.000000
     6  C    2.423296   2.719525   1.545368   2.223508   2.181987
     7  H    2.974173   2.899126   2.182838   2.412664   3.035397
     8  H    3.321573   3.760759   2.202989   2.801975   2.389390
     9  C    2.423099   2.719597   2.437000   3.363771   2.961862
    10  H    2.973757   2.899248   3.177035   3.922192   3.902917
    11  H    3.321891   3.761582   3.214868   4.205577   3.449712
    12  C    1.468986   2.030296   2.295223   3.263345   2.674276
    13  H    2.118301   2.319021   3.262539   4.116801   3.714180
    14  H    2.081258   2.911605   2.674347   3.715138   2.593023
    15  X    1.430360   1.000000   1.931487   2.398674   2.918020
    16  O    3.137576   2.114868   3.849304   3.721426   4.865998
    17  H    3.799620   2.804822   4.345325   4.228189   5.414627
    18  H    3.799620   2.804822   4.581335   4.338668   5.547222
                    6          7          8          9         10
     6  C    0.000000
     7  H    1.094728   0.000000
     8  H    1.093668   1.760634   0.000000
     9  C    1.547390   2.189151   2.211687   0.000000
    10  H    2.189057   2.322790   2.940346   1.094255   0.000000
    11  H    2.212049   2.941054   2.388102   1.094514   1.761103
    12  C    2.437656   3.177673   3.215306   1.545886   2.182598
    13  H    3.363467   3.921886   4.204948   2.223350   2.412240
    14  H    2.962773   3.904061   3.450634   2.182829   3.035577
    15  X    1.995422   2.085961   3.084959   1.925749   1.985325
    16  O    4.145087   3.758857   5.216418   4.145468   3.759828
    17  H    4.325133   3.747619   5.359815   4.301583   3.707168
    18  H    5.038779   4.657837   6.102895   5.059676   4.692040
                   11         12         13         14         15
    11  H    0.000000
    12  C    2.204077   0.000000
    13  H    2.802626   1.093918   0.000000
    14  H    2.390271   1.095960   1.767314   0.000000
    15  X    3.016674   1.823623   2.241656   2.839072   0.000000
    16  O    5.217820   3.849599   3.722261   4.866844   2.339373
    17  H    5.331463   4.310258   4.163530   5.383499   2.711665
    18  H    6.130445   4.614981   4.402618   5.579196   3.221945
                   16         17         18
    16  O    0.000000
    17  H    0.957200   0.000000
    18  H    0.957200   1.513901   0.000000
 Stoichiometry    C4H11NO
 Framework group  C1[X(C4H11NO)]
 Deg. of freedom    45
 Full point group                 C1      NOp   1
 Largest Abelian subgroup         C1      NOp   1
 Largest concise Abelian subgroup C1      NOp   1
                         Standard orientation:                         
 ---------------------------------------------------------------------
 Center     Atomic      Atomic             Coordinates (Angstroms)
 Number     Number       Type             X           Y           Z
 ---------------------------------------------------------------------
      1          7           0       -0.054692    0.015294   -1.096809
      2          1           0       -0.970749    0.008376   -0.642141
      3          6           0        0.702202    1.156083   -0.562982
      4          1           0        0.095511    2.067263   -0.588397
      5          1           0        1.566378    1.315145   -1.216836
      6          6           0        1.169737    0.762411    0.856382
      7          1           0        0.467400    1.138635    1.607120
      8          1           0        2.151647    1.180289    1.095838
      9          6           0        1.171122   -0.784819    0.834152
     10          1           0        0.469934   -1.183908    1.573380
     11          1           0        2.154799   -1.207562    1.061370
     12          6           0        0.703691   -1.138899   -0.596197
     13          1           0        0.099102   -2.049111   -0.647613
     14          1           0        1.568603   -1.277598   -1.254848
     15          8           0       -2.865072   -0.005931    0.298073
     16          1           0       -3.054582   -0.086207    1.232885
     17          1           0       -3.725132    0.066418   -0.115804
 ---------------------------------------------------------------------
 Rotational constants (GHZ):           4.2046373           1.8589812           1.8135151
 Standard basis: 6-31G(d) (6D, 7F)
 There are   112 symmetry adapted cartesian basis functions of A   symmetry.
 There are   112 symmetry adapted basis functions of A   symmetry.
   112 basis functions,   212 primitive gaussians,   112 cartesian basis functions
    25 alpha electrons       25 beta electrons
       nuclear repulsion energy       253.6645789080 Hartrees.
 NAtoms=   17 NActive=   17 NUniq=   17 SFac= 1.00D+00 NAtFMM=   60 NAOKFM=F Big=F
 Integral buffers will be    131072 words long.
 Raffenetti 1 integral format.
 Two-electron integral symmetry is turned on.
 One-electron integrals computed using PRISM.
 NBasis=   112 RedAO= T EigKep=  3.15D-03  NBF=   112
 NBsUse=   112 1.00D-06 EigRej= -1.00D+00 NBFU=   112
 Initial guess from the checkpoint file:  "PRLD-DON-H1.chk"
 B after Tr=    -0.000000    0.000000    0.000000
         Rot=    0.999430    0.033571    0.003564    0.000595 Ang=   3.87 deg.
 ExpMin= 1.61D-01 ExpMax= 5.48D+03 ExpMxC= 8.25D+02 IAcc=2 IRadAn=         4 AccDes= 0.00D+00
 Harris functional with IExCor=  205 and IRadAn=       4 diagonalized for initial guess.
 HarFok:  IExCor=  205 AccDes= 0.00D+00 IRadAn=         4 IDoV= 1 UseB2=F ITyADJ=14
 ICtDFT=  3500011 ScaDFX=  1.000000  1.000000  1.000000  1.000000
 FoFCou: FMM=F IPFlag=           0 FMFlag=      100000 FMFlg1=           0
         NFxFlg=           0 DoJE=T BraDBF=F KetDBF=T FulRan=T
         wScrn=  0.000000 ICntrl=       500 IOpCl=  0 I1Cent=   200000004 NGrid=           0
         NMat0=    1 NMatS0=      1 NMatT0=    0 NMatD0=    1 NMtDS0=    0 NMtDT0=    0
 Petite list used in FoFCou.
 Keep R1 ints in memory in canonical form, NReq=20924943.
 Requested convergence on RMS density matrix=1.00D-08 within 128 cycles.
 Requested convergence on MAX density matrix=1.00D-06.
 Requested convergence on             energy=1.00D-06.
 No special actions if energy rises.
 SCF Done:  E(RHF) =  -287.157288062     A.U. after   12 cycles
            NFock= 12  Conv=0.49D-08     -V/T= 2.0018
 Calling FoFJK, ICntrl=      2127 FMM=F ISym2X=0 I1Cent= 0 IOpClX= 0 NMat=1 NMatS=1 NMatT=0.
 ***** Axes restored to original set *****
 -------------------------------------------------------------------
 Center     Atomic                   Forces (Hartrees/Bohr)
 Number     Number              X              Y              Z
 -------------------------------------------------------------------
      1        7           0.017737586   -0.005456526    0.004379263
      2        1          -0.011710797    0.000625559   -0.013989745
      3        6          -0.006730067    0.005341127    0.003179467
      4        1          -0.002256737   -0.007332304   -0.002777020
      5        1           0.004696785   -0.000211420    0.004229660
      6        6           0.005204319    0.002831145   -0.001928818
      7        1          -0.005150922   -0.001410854   -0.003589538
      8        1          -0.001177961   -0.000347754    0.006060563
      9        6           0.001289653   -0.006184446   -0.000104130
     10        1          -0.003335083    0.002352163   -0.004528726
     11        1           0.000453062    0.004018945    0.005399945
     12        6          -0.007792925    0.002677927    0.002937137
     13        1           0.002301945    0.004281496   -0.005654689
     14        1           0.004726618   -0.000950154    0.004752887
     15        8           0.010303560    0.000112169    0.014792813
     16        1          -0.008859510    0.003153528   -0.003487648
     17        1           0.000300473   -0.003500602   -0.009671419
 -------------------------------------------------------------------
 Cartesian Forces:  Max     0.017737586 RMS     0.006002995
 -----------------------------------------------------------------------------------------------
                       Internal Coordinate Forces (Hartree/Bohr or radian)
  Cent   Atom   N1       Length/X         N2         Alpha/Y        N3         Beta/Z          J
 -----------------------------------------------------------------------------------------------
      1  N            0.017260(     1)     -0.005248(    19)      0.004658(    37)
      2  H           -0.009507(     2)      0.000179(    20)     -0.012624(    38)
      3  C           -0.006730(     3)      0.005341(    21)      0.003179(    39)
      4  H           -0.002257(     4)     -0.007332(    22)     -0.002777(    40)
      5  H            0.004697(     5)     -0.000211(    23)      0.004230(    41)
      6  C            0.005204(     6)      0.002831(    24)     -0.001929(    42)
      7  H           -0.005151(     7)     -0.001411(    25)     -0.003590(    43)
      8  H           -0.001178(     8)     -0.000348(    26)      0.006061(    44)
      9  C            0.001290(     9)     -0.006184(    27)     -0.000104(    45)
     10  H           -0.003335(    10)      0.002352(    28)     -0.004529(    46)
     11  H            0.000453(    11)      0.004019(    29)      0.005400(    47)
     12  C           -0.007774(    12)      0.002681(    30)      0.002926(    48)
     13  H            0.002302(    13)      0.004281(    31)     -0.005655(    49)
     14  H            0.004727(    14)     -0.000950(    32)      0.004753(    50)
         X        2   0.000000(    15)      1  -0.001077(    33)     12   0.000059(    51)     0
     15  O        2   0.002289(    16)     15  -0.001077(    34)      1   0.000161(    52)     0
     16  H       16  -0.009874(    17)      2  -0.003189(    35)     15  -0.000010(    53)     0
     17  H       16  -0.009911(    18)      2  -0.005001(    36)     15   0.000069(    54)     0
 -----------------------------------------------------------------------------------------------
 Internal  Forces:  Max     0.017259683 RMS     0.005172225

 GradGradGradGradGradGradGradGradGradGradGradGradGradGradGradGradGradGrad
 Berny optimization.
 Search for a local minimum.
 Step number   3 out of a maximum of  100
 All quantities printed in internal units (Hartrees-Bohrs-Radians)
 Update second derivatives using D2CorN and points    3
 The second derivative matrix:
                          rAH       dih
           rAH          0.04149
           dih         -0.00316   0.00003
 ITU=  0  1  0
     Eigenvalues ---   -0.00021   0.04173
 RFO step:  Lambda=-2.94289987D-04 EMin=-2.05163161D-04
 Quartic linear search produced a step of  0.78244.
 Maximum step size (   0.505) exceeded in Quadratic search.
    -- Step size scaled by   0.504
 Variable       Old X    -DE/DX   Delta X   Delta X   Delta X     New X
                                 (Linear)    (Quad)   (Total)
   rAH        3.99652   0.00229   0.11323  -0.02707   0.08616   4.08268
   dih        0.87343   0.00006   0.45561  -0.50381  -0.04820   0.82523
         Item               Value     Threshold  Converged?
 Maximum Force            0.002289     0.000450     NO 
 RMS     Force            0.001619     0.000300     NO 
 Maximum Displacement     0.086157     0.001800     NO 
 RMS     Displacement     0.069809     0.001200     NO 
 Predicted change in Energy=-2.723890D-05
 GradGradGradGradGradGradGradGradGradGradGradGradGradGradGradGradGradGrad

 ---------------------------------------------------------------------------------------------------
                            Z-MATRIX (ANGSTROMS AND DEGREES)
   CD    Cent   Atom    N1       Length/X        N2       Alpha/Y        N3        Beta/Z          J
 ---------------------------------------------------------------------------------------------------
      1      1  N        0   0.844000          0.456000          0.923000
      2      2  H        0   1.372000          0.495000          1.798000
      3      3  C        0   1.643000          1.125000         -0.113000
      4      4  H        0   2.000000          2.097000          0.243000
      5      5  H        0   0.987000          1.307000         -0.971000
      6      6  C        0   2.779000          0.153000         -0.504000
      7      7  H        0   3.689000          0.384000          0.059000
      8      8  H        0   3.031000          0.222000         -1.566000
      9      9  C        0   2.231000         -1.240000         -0.112000
     10     10  H        0   2.866000         -1.707000          0.647000
     11     11  H        0   2.185000         -1.928000         -0.962000
     12     12  C        0   0.830000         -0.941000          0.469000
     13     13  H        0   0.542000         -1.609000          1.286000
     14     14  H        0   0.068000         -1.027000         -0.314000
     15         X        2   1.000000(    14)      1   90.000(    30)     12   47.282(    45)      0
     16     15  O        2   2.160460(    15)     15   90.000(    31)      1  180.000(    46)      0
     17     16  H       16   0.957200(    16)      2  127.740(    32)     15    0.000(    47)      0
     18     17  H       16   0.957200(    17)      2  127.740(    33)     15  180.000(    48)      0
 ---------------------------------------------------------------------------------------------------
                         Z-Matrix orientation:                         
 ---------------------------------------------------------------------
 Center     Atomic      Atomic             Coordinates (Angstroms)
 Number     Number       Type             X           Y           Z
 ---------------------------------------------------------------------
      1          7           0        0.844000    0.456000    0.923000
      2          1           0        1.372000    0.495000    1.798000
      3          6           0        1.643000    1.125000   -0.113000
      4          1           0        2.000000    2.097000    0.243000
      5          1           0        0.987000    1.307000   -0.971000
      6          6           0        2.779000    0.153000   -0.504000
      7          1           0        3.689000    0.384000    0.059000
      8          1           0        3.031000    0.222000   -1.566000
      9          6           0        2.231000   -1.240000   -0.112000
     10          1           0        2.866000   -1.707000    0.647000
     11          1           0        2.185000   -1.928000   -0.962000
     12          6           0        0.830000   -0.941000    0.469000
     13          1           0        0.542000   -1.609000    1.286000
     14          1           0        0.068000   -1.027000   -0.314000
     15         -1           0        2.096352   -0.057432    1.385528
     16          8           0        2.487396    0.577387    3.646430
     17          1           0        3.338171    0.181565    3.835474
     18          1           0        2.241575    1.017893    4.459916
 ---------------------------------------------------------------------
                    Distance matrix (angstroms):
                    1          2          3          4          5
     1  N    0.000000
     2  H    1.022707   0.000000
     3  C    1.469441   2.030335   0.000000
     4  H    2.119343   2.319227   1.094974   0.000000
     5  H    2.081318   2.911173   1.095274   1.767502   0.000000
     6  C    2.423296   2.719525   1.545368   2.223508   2.181987
     7  H    2.974173   2.899126   2.182838   2.412664   3.035397
     8  H    3.321573   3.760759   2.202989   2.801975   2.389390
     9  C    2.423099   2.719597   2.437000   3.363771   2.961862
    10  H    2.973757   2.899248   3.177035   3.922192   3.902917
    11  H    3.321891   3.761582   3.214868   4.205577   3.449712
    12  C    1.468986   2.030296   2.295223   3.263345   2.674276
    13  H    2.118301   2.319021   3.262539   4.116801   3.714180
    14  H    2.081258   2.911605   2.674347   3.715138   2.593023
    15  X    1.430360   1.000000   1.961953   2.440539   2.940334
    16  O    3.183168   2.160460   3.891812   3.759004   4.909601
    17  H    3.844309   2.848749   4.399332   4.285494   5.467797
    18  H    3.844309   2.848749   4.613168   4.359496   5.581432
                    6          7          8          9         10
     6  C    0.000000
     7  H    1.094728   0.000000
     8  H    1.093668   1.760634   0.000000
     9  C    1.547390   2.189151   2.211687   0.000000
    10  H    2.189057   2.322790   2.940346   1.094255   0.000000
    11  H    2.212049   2.941054   2.388102   1.094514   1.761103
    12  C    2.437656   3.177673   3.215306   1.545886   2.182598
    13  H    3.363467   3.921886   4.204948   2.223350   2.412240
    14  H    2.962773   3.904061   3.450634   2.182829   3.035577
    15  X    2.020051   2.119214   3.108564   1.912900   1.964397
    16  O    4.182249   3.788259   5.252736   4.182635   3.789241
    17  H    4.375446   3.798133   5.410352   4.339266   3.735772
    18  H    5.067280   4.675994   6.129298   5.099079   4.727925
                   11         12         13         14         15
    11  H    0.000000
    12  C    2.204077   0.000000
    13  H    2.802626   1.093918   0.000000
    14  H    2.390271   1.095960   1.767314   0.000000
    15  X    3.002960   1.795651   2.198472   2.818274   0.000000
    16  O    5.254145   3.892110   3.759852   4.910452   2.380670
    17  H    5.366175   4.345598   4.186229   5.419667   2.757077
    18  H    6.170791   4.664463   4.456777   5.629945   3.260257
                   16         17         18
    16  O    0.000000
    17  H    0.957200   0.000000
    18  H    0.957200   1.513901   0.000000
 Stoichiometry    C4H11NO
 Framework group  C1[X(C4H11NO)]
 Deg. of freedom    45
 Full point group                 C1      NOp   1
 Largest Abelian subgroup         C1      NOp   1
 Largest concise Abelian subgroup C1      NOp   1
                         Standard orientation:                         
 ---------------------------------------------------------------------
 Center     Atomic      Atomic             Coordinates (Angstroms)
 Number     Number       Type             X           Y           Z
 ---------------------------------------------------------------------
      1          7           0       -0.037687    0.025689   -1.101008
      2          1           0       -0.957363    0.014453   -0.653795
      3          6           0        0.714750    1.161455   -0.550435
      4          1           0        0.108165    2.072801   -0.572165
      5          1           0        1.584127    1.326696   -1.195807
      6          6           0        1.170926    0.754500    0.868879
      7          1           0        0.462536    1.123621    1.617453
      8          1           0        2.150828    1.170163    1.120124
      9          6           0        1.172688   -0.792454    0.832136
     10          1           0        0.465640   -1.198503    1.561931
     11          1           0        2.154564   -1.217259    1.063266
     12          6           0        0.716802   -1.133114   -0.605181
     13          1           0        0.112761   -2.042834   -0.669992
     14          1           0        1.586991   -1.265576   -1.258139
     15          8           0       -2.900171   -0.009283    0.290940
     16          1           0       -3.098935   -0.134500    1.218865
     17          1           0       -3.755124    0.103060   -0.124592
 ---------------------------------------------------------------------
 Rotational constants (GHZ):           4.1954716           1.8283148           1.7857996
 Standard basis: 6-31G(d) (6D, 7F)
 There are   112 symmetry adapted cartesian basis functions of A   symmetry.
 There are   112 symmetry adapted basis functions of A   symmetry.
   112 basis functions,   212 primitive gaussians,   112 cartesian basis functions
    25 alpha electrons       25 beta electrons
       nuclear repulsion energy       253.0741314312 Hartrees.
 NAtoms=   17 NActive=   17 NUniq=   17 SFac= 1.00D+00 NAtFMM=   60 NAOKFM=F Big=F
 Integral buffers will be    131072 words long.
 Raffenetti 1 integral format.
 Two-electron integral symmetry is turned on.
 One-electron integrals computed using PRISM.
 NBasis=   112 RedAO= T EigKep=  3.15D-03  NBF=   112
 NBsUse=   112 1.00D-06 EigRej= -1.00D+00 NBFU=   112
 Initial guess from the checkpoint file:  "PRLD-DON-H1.chk"
 B after Tr=     0.000000   -0.000000   -0.000000
         Rot=    0.999984   -0.005021    0.002605    0.000001 Ang=  -0.65 deg.
 ExpMin= 1.61D-01 ExpMax= 5.48D+03 ExpMxC= 8.25D+02 IAcc=2 IRadAn=         4 AccDes= 0.00D+00
 Harris functional with IExCor=  205 and IRadAn=       4 diagonalized for initial guess.
 HarFok:  IExCor=  205 AccDes= 0.00D+00 IRadAn=         4 IDoV= 1 UseB2=F ITyADJ=14
 ICtDFT=  3500011 ScaDFX=  1.000000  1.000000  1.000000  1.000000
 FoFCou: FMM=F IPFlag=           0 FMFlag=      100000 FMFlg1=           0
         NFxFlg=           0 DoJE=T BraDBF=F KetDBF=T FulRan=T
         wScrn=  0.000000 ICntrl=       500 IOpCl=  0 I1Cent=   200000004 NGrid=           0
         NMat0=    1 NMatS0=      1 NMatT0=    0 NMatD0=    1 NMtDS0=    0 NMtDT0=    0
 Petite list used in FoFCou.
 Keep R1 ints in memory in canonical form, NReq=20924732.
 Requested convergence on RMS density matrix=1.00D-08 within 128 cycles.
 Requested convergence on MAX density matrix=1.00D-06.
 Requested convergence on             energy=1.00D-06.
 No special actions if energy rises.
 SCF Done:  E(RHF) =  -287.157449394     A.U. after    9 cycles
            NFock=  9  Conv=0.44D-08     -V/T= 2.0018
 Calling FoFJK, ICntrl=      2127 FMM=F ISym2X=0 I1Cent= 0 IOpClX= 0 NMat=1 NMatS=1 NMatT=0.
 ***** Axes restored to original set *****
 -------------------------------------------------------------------
 Center     Atomic                   Forces (Hartrees/Bohr)
 Number     Number              X              Y              Z
 -------------------------------------------------------------------
      1        7           0.017720041   -0.005409508    0.004501686
      2        1          -0.011405550    0.000624644   -0.013557860
      3        6          -0.006573350    0.005416670    0.003122190
      4        1          -0.002268826   -0.007348926   -0.002786552
      5        1           0.004658378   -0.000235984    0.004284084
      6        6           0.005248771    0.002842642   -0.001904481
      7        1          -0.005190271   -0.001417196   -0.003586254
      8        1          -0.001202920   -0.000344265    0.006061351
      9        6           0.001296199   -0.006177146   -0.000096274
     10        1          -0.003338148    0.002364554   -0.004536348
     11        1           0.000436511    0.004024502    0.005407523
     12        6          -0.007746660    0.002510208    0.002953374
     13        1           0.002287375    0.004296349   -0.005669008
     14        1           0.004727153   -0.000889462    0.004784510
     15        8           0.009895998    0.000100838    0.014186189
     16        1          -0.008768928    0.003455546   -0.003569721
     17        1           0.000224227   -0.003813466   -0.009594409
 -------------------------------------------------------------------
 Cartesian Forces:  Max     0.017720041 RMS     0.005930329
 -----------------------------------------------------------------------------------------------
                       Internal Coordinate Forces (Hartree/Bohr or radian)
  Cent   Atom   N1       Length/X         N2         Alpha/Y        N3         Beta/Z          J
 -----------------------------------------------------------------------------------------------
      1  N            0.017209(     1)     -0.005208(    19)      0.004801(    37)
      2  H           -0.009570(     2)      0.000161(    20)     -0.012819(    38)
      3  C           -0.006573(     3)      0.005417(    21)      0.003122(    39)
      4  H           -0.002269(     4)     -0.007349(    22)     -0.002787(    40)
      5  H            0.004658(     5)     -0.000236(    23)      0.004284(    41)
      6  C            0.005249(     6)      0.002843(    24)     -0.001904(    42)
      7  H           -0.005190(     7)     -0.001417(    25)     -0.003586(    43)
      8  H           -0.001203(     8)     -0.000344(    26)      0.006061(    44)
      9  C            0.001296(     9)     -0.006177(    27)     -0.000096(    45)
     10  H           -0.003338(    10)      0.002365(    28)     -0.004536(    46)
     11  H            0.000437(    11)      0.004025(    29)      0.005408(    47)
     12  C           -0.007720(    12)      0.002515(    30)      0.002937(    48)
     13  H            0.002287(    13)      0.004296(    31)     -0.005669(    49)
     14  H            0.004727(    14)     -0.000889(    32)      0.004785(    50)
         X        2   0.000000(    15)      1  -0.001105(    33)     12   0.000084(    51)     0
     15  O        2   0.001562(    16)     15  -0.001105(    34)      1   0.000248(    52)     0
     16  H       16  -0.009928(    17)      2  -0.003140(    35)     15  -0.000018(    53)     0
     17  H       16  -0.009966(    18)      2  -0.004891(    36)     15   0.000102(    54)     0
 -----------------------------------------------------------------------------------------------
 Internal  Forces:  Max     0.017208679 RMS     0.005176103

 GradGradGradGradGradGradGradGradGradGradGradGradGradGradGradGradGradGrad
 Berny optimization.
 Search for a local minimum.
 Step number   4 out of a maximum of  100
 All quantities printed in internal units (Hartrees-Bohrs-Radians)
 Update second derivatives using D2CorN and points    2    3    4
 DE= -1.61D-04 DEPred=-2.72D-05 R= 5.92D+00
 TightC=F SS=  1.41D+00  RLast= 9.87D-02 DXNew= 8.4853D-01 2.9617D-01
 Trust test= 5.92D+00 RLast= 9.87D-02 DXMaxT set to 5.05D-01
 The second derivative matrix:
                          rAH       dih
           rAH          0.01242
           dih          0.00294  -0.00167
 ITU=  1  0  1
     Eigenvalues ---   -0.00226   0.01301
 RFO step:  Lambda=-2.26830502D-03 EMin=-2.26093491D-03
 I=     1 Eig=   -2.26D-03 Dot1=  7.76D-05
 I=     1 Stepn=  6.00D-01 RXN=   6.00D-01 EDone=F
 Mixed    1 eigenvectors in step.  Raw Step.Grad=  7.76D-05.
 RFO eigenvector is Hessian eigenvector with negative curvature.
 Taking step of  6.00D-01 in eigenvector direction(s).  Step.Grad= -4.99D-05.
 Quartic linear search produced a step of  2.00000.
 Maximum step size (   0.505) exceeded in Quadratic search.
    -- Step size scaled by   0.841
 Variable       Old X    -DE/DX   Delta X   Delta X   Delta X     New X
                                 (Linear)    (Quad)   (Total)
   rAH        4.08268   0.00156   0.17231  -0.09918   0.07313   4.15581
   dih        0.82523   0.00008  -0.09641   0.49469   0.39829   1.22351
         Item               Value     Threshold  Converged?
 Maximum Force            0.001562     0.000450     NO 
 RMS     Force            0.001106     0.000300     NO 
 Maximum Displacement     0.398286     0.001800     NO 
 RMS     Displacement     0.286339     0.001200     NO 
 Predicted change in Energy=-1.614160D-04
 GradGradGradGradGradGradGradGradGradGradGradGradGradGradGradGradGradGrad

 ---------------------------------------------------------------------------------------------------
                            Z-MATRIX (ANGSTROMS AND DEGREES)
   CD    Cent   Atom    N1       Length/X        N2       Alpha/Y        N3        Beta/Z          J
 ---------------------------------------------------------------------------------------------------
      1      1  N        0   0.844000          0.456000          0.923000
      2      2  H        0   1.372000          0.495000          1.798000
      3      3  C        0   1.643000          1.125000         -0.113000
      4      4  H        0   2.000000          2.097000          0.243000
      5      5  H        0   0.987000          1.307000         -0.971000
      6      6  C        0   2.779000          0.153000         -0.504000
      7      7  H        0   3.689000          0.384000          0.059000
      8      8  H        0   3.031000          0.222000         -1.566000
      9      9  C        0   2.231000         -1.240000         -0.112000
     10     10  H        0   2.866000         -1.707000          0.647000
     11     11  H        0   2.185000         -1.928000         -0.962000
     12     12  C        0   0.830000         -0.941000          0.469000
     13     13  H        0   0.542000         -1.609000          1.286000
     14     14  H        0   0.068000         -1.027000         -0.314000
     15         X        2   1.000000(    14)      1   90.000(    30)     12   70.102(    45)      0
     16     15  O        2   2.199159(    15)     15   90.000(    31)      1  180.000(    46)      0
     17     16  H       16   0.957200(    16)      2  127.740(    32)     15    0.000(    47)      0
     18     17  H       16   0.957200(    17)      2  127.740(    33)     15  180.000(    48)      0
 ---------------------------------------------------------------------------------------------------
                         Z-Matrix orientation:                         
 ---------------------------------------------------------------------
 Center     Atomic      Atomic             Coordinates (Angstroms)
 Number     Number       Type             X           Y           Z
 ---------------------------------------------------------------------
      1          7           0        0.844000    0.456000    0.923000
      2          1           0        1.372000    0.495000    1.798000
      3          6           0        1.643000    1.125000   -0.113000
      4          1           0        2.000000    2.097000    0.243000
      5          1           0        0.987000    1.307000   -0.971000
      6          6           0        2.779000    0.153000   -0.504000
[...]
   rAH        4.37341   0.00000   0.00034   0.00003   0.00037   4.37378
   dih        0.96324  -0.00000   0.00003  -0.00119  -0.00116   0.96208
         Item               Value     Threshold  Converged?
 Maximum Force            0.000001     0.000450     YES
 RMS     Force            0.000001     0.000300     YES
 Maximum Displacement     0.001160     0.001800     YES
 RMS     Displacement     0.000861     0.001200     YES
 Predicted change in Energy=-5.493315D-10
 Optimization completed.
    -- Stationary point found.
                       ----------------------------
                       !   Optimized Parameters   !
                       ! (Angstroms and Degrees)  !
 ----------------------                            ----------------------
 !      Name          Value   Derivative information (Atomic Units)     !
 ------------------------------------------------------------------------
 !       rAH         2.3143   -DE/DX =    0.0                           !
 !       dih        55.1897   -DE/DX =    0.0                           !
 ------------------------------------------------------------------------
 GradGradGradGradGradGradGradGradGradGradGradGradGradGradGradGradGradGrad

 ---------------------------------------------------------------------------------------------------
                            Z-MATRIX (ANGSTROMS AND DEGREES)
   CD    Cent   Atom    N1       Length/X        N2       Alpha/Y        N3        Beta/Z          J
 ---------------------------------------------------------------------------------------------------
      1      1  N        0   0.844000          0.456000          0.923000
      2      2  H        0   1.372000          0.495000          1.798000
      3      3  C        0   1.643000          1.125000         -0.113000
      4      4  H        0   2.000000          2.097000          0.243000
      5      5  H        0   0.987000          1.307000         -0.971000
      6      6  C        0   2.779000          0.153000         -0.504000
      7      7  H        0   3.689000          0.384000          0.059000
      8      8  H        0   3.031000          0.222000         -1.566000
      9      9  C        0   2.231000         -1.240000         -0.112000
     10     10  H        0   2.866000         -1.707000          0.647000
     11     11  H        0   2.185000         -1.928000         -0.962000
     12     12  C        0   0.830000         -0.941000          0.469000
     13     13  H        0   0.542000         -1.609000          1.286000
     14     14  H        0   0.068000         -1.027000         -0.314000
     15         X        2   1.000000(    14)      1   90.000(    30)     12   55.190(    45)      0
     16     15  O        2   2.314310(    15)     15   90.000(    31)      1  180.000(    46)      0
     17     16  H       16   0.957200(    16)      2  127.740(    32)     15    0.000(    47)      0
     18     17  H       16   0.957200(    17)      2  127.740(    33)     15  180.000(    48)      0
 ---------------------------------------------------------------------------------------------------
                         Z-Matrix orientation:                         
 ---------------------------------------------------------------------
 Center     Atomic      Atomic             Coordinates (Angstroms)
 Number     Number       Type             X           Y           Z
 ---------------------------------------------------------------------
      1          7           0        0.844000    0.456000    0.923000
      2          1           0        1.372000    0.495000    1.798000
      3          6           0        1.643000    1.125000   -0.113000
      4          1           0        2.000000    2.097000    0.243000
      5          1           0        0.987000    1.307000   -0.971000
      6          6           0        2.779000    0.153000   -0.504000
      7          1           0        3.689000    0.384000    0.059000
      8          1           0        3.031000    0.222000   -1.566000
      9          6           0        2.231000   -1.240000   -0.112000
     10          1           0        2.866000   -1.707000    0.647000
     11          1           0        2.185000   -1.928000   -0.962000
     12          6           0        0.830000   -0.941000    0.469000
     13          1           0        0.542000   -1.609000    1.286000
     14          1           0        0.068000   -1.027000   -0.314000
     15         -1           0        2.152325    0.062379    1.346412
     16          8           0        2.566825    0.583254    3.778060
     17          1           0        3.459969    0.278124    3.937495
     18          1           0        2.278635    0.933069    4.621154
 ---------------------------------------------------------------------
                    Distance matrix (angstroms):
                    1          2          3          4          5
     1  N    0.000000
     2  H    1.022707   0.000000
     3  C    1.469441   2.030335   0.000000
     4  H    2.119343   2.319227   1.094974   0.000000
     5  H    2.081318   2.911173   1.095274   1.767502   0.000000
     6  C    2.423296   2.719525   1.545368   2.223508   2.181987
     7  H    2.974173   2.899126   2.182838   2.412664   3.035397
     8  H    3.321573   3.760759   2.202989   2.801975   2.389390
     9  C    2.423099   2.719597   2.437000   3.363771   2.961862
    10  H    2.973757   2.899248   3.177035   3.922192   3.902917
    11  H    3.321891   3.761582   3.214868   4.205577   3.449712
    12  C    1.468986   2.030296   2.295223   3.263345   2.674276
    13  H    2.118301   2.319021   3.262539   4.116801   3.714180
    14  H    2.081258   2.911605   2.674347   3.715138   2.593023
    15  X    1.430360   1.000000   1.875756   2.319570   2.877058
    16  O    3.337017   2.314310   4.035751   3.887077   5.056997
    17  H    3.995262   2.997347   4.519412   4.369109   5.591734
    18  H    3.995262   2.997347   4.780490   4.538789   5.751550
                    6          7          8          9         10
     6  C    0.000000
     7  H    1.094728   0.000000
     8  H    1.093668   1.760634   0.000000
     9  C    1.547390   2.189151   2.211687   0.000000
    10  H    2.189057   2.322790   2.940346   1.094255   0.000000
    11  H    2.212049   2.941054   2.388102   1.094514   1.761103
    12  C    2.437656   3.177673   3.215306   1.545886   2.182598
    13  H    3.363467   3.921886   4.204948   2.223350   2.412240
    14  H    2.962773   3.904061   3.450634   2.182829   3.035577
    15  X    1.955750   2.030330   3.046259   1.956872   2.032046
    16  O    4.308848   3.889780   5.376331   4.309246   3.890797
    17  H    4.495136   3.886693   5.520473   4.495940   3.888556
    18  H    5.208270   4.806647   6.273161   5.208382   4.807168
                   11         12         13         14         15
    11  H    0.000000
    12  C    2.204077   0.000000
    13  H    2.802626   1.093918   0.000000
    14  H    2.390271   1.095960   1.767314   0.000000
    15  X    3.048187   1.877542   2.321703   2.878911   0.000000
    16  O    5.377765   4.036061   3.887963   5.057865   2.521117
    17  H    5.522461   4.520338   4.371065   5.593211   2.910359
    18  H    6.274240   4.780278   4.538862   5.751915   3.390869
                   16         17         18
    16  O    0.000000
    17  H    0.957200   0.000000
    18  H    0.957200   1.513901   0.000000
 Stoichiometry    C4H11NO
 Framework group  C1[X(C4H11NO)]
 Deg. of freedom    45
 Full point group                 C1      NOp   1
 Largest Abelian subgroup         C1      NOp   1
 Largest concise Abelian subgroup C1      NOp   1
                         Standard orientation:                         
 ---------------------------------------------------------------------
 Center     Atomic      Atomic             Coordinates (Angstroms)
 Number     Number       Type             X           Y           Z
 ---------------------------------------------------------------------
      1          7           0        0.017902   -0.003355   -1.114663
      2          1           0       -0.912689   -0.002157   -0.690482
      3          6           0        0.757870    1.146006   -0.575523
      4          1           0        0.153256    2.056885   -0.636432
      5          1           0        1.643343    1.293569   -1.203047
      6          6           0        1.177844    0.776291    0.864996
      7          1           0        0.451450    1.165512    1.585613
      8          1           0        2.151717    1.197750    1.129668
      9          6           0        1.178426   -0.771094    0.869064
     10          1           0        0.452791   -1.157270    1.591364
     11          1           0        2.153634   -1.190343    1.135819
     12          6           0        0.758177   -1.149210   -0.569749
     13          1           0        0.154714   -2.059901   -0.625686
     14          1           0        1.644249   -1.299446   -1.196994
     15          8           0       -3.018546    0.000556    0.269409
     16          1           0       -3.237701    0.004149    1.201176
     17          1           0       -3.865613   -0.001664   -0.176353
 ---------------------------------------------------------------------
 Rotational constants (GHZ):           4.1677080           1.7288773           1.6956314

 **********************************************************************

            Population analysis using the SCF density.

 **********************************************************************

 Orbital symmetries:
       Occupied  (A) (A) (A) (A) (A) (A) (A) (A) (A) (A) (A) (A)
                 (A) (A) (A) (A) (A) (A) (A) (A) (A) (A) (A) (A)
                 (A)
       Virtual   (A) (A) (A) (A) (A) (A) (A) (A) (A) (A) (A) (A)
                 (A) (A) (A) (A) (A) (A) (A) (A) (A) (A) (A) (A)
                 (A) (A) (A) (A) (A) (A) (A) (A) (A) (A) (A) (A)
                 (A) (A) (A) (A) (A) (A) (A) (A) (A) (A) (A) (A)
                 (A) (A) (A) (A) (A) (A) (A) (A) (A) (A) (A) (A)
                 (A) (A) (A) (A) (A) (A) (A) (A) (A) (A) (A) (A)
                 (A) (A) (A) (A) (A) (A) (A) (A) (A) (A) (A) (A)
                 (A) (A) (A)
 The electronic state is 1-A.
 Alpha  occ. eigenvalues --  -20.57727 -15.51815 -11.22769 -11.22765 -11.20744
 Alpha  occ. eigenvalues --  -11.20689  -1.35809  -1.19836  -1.00573  -0.95508
 Alpha  occ. eigenvalues --   -0.79879  -0.77086  -0.72285  -0.66066  -0.62381
 Alpha  occ. eigenvalues --   -0.59420  -0.57138  -0.56984  -0.51455  -0.49015
 Alpha  occ. eigenvalues --   -0.47626  -0.46655  -0.46325  -0.44571  -0.35429
 Alpha virt. eigenvalues --    0.18900   0.24069   0.25976   0.29215   0.30137
 Alpha virt. eigenvalues --    0.30779   0.33735   0.34545   0.35003   0.35308
 Alpha virt. eigenvalues --    0.37634   0.39640   0.41766   0.44819   0.49731
 Alpha virt. eigenvalues --    0.53809   0.74052   0.77439   0.78112   0.80975
 Alpha virt. eigenvalues --    0.81614   0.85337   0.91781   0.93226   0.94156
 Alpha virt. eigenvalues --    0.96188   1.00257   1.03655   1.04130   1.10075
 Alpha virt. eigenvalues --    1.12065   1.13862   1.13928   1.14564   1.15933
 Alpha virt. eigenvalues --    1.16759   1.16933   1.19229   1.21057   1.22155
 Alpha virt. eigenvalues --    1.22484   1.25269   1.25565   1.36588   1.42375
 Alpha virt. eigenvalues --    1.51012   1.53674   1.54615   1.60605   1.62650
 Alpha virt. eigenvalues --    1.70913   1.92419   2.01707   2.02236   2.04935
 Alpha virt. eigenvalues --    2.09434   2.11452   2.13795   2.14859   2.21311
 Alpha virt. eigenvalues --    2.23780   2.30653   2.33299   2.36581   2.43948
 Alpha virt. eigenvalues --    2.44809   2.45050   2.52487   2.58948   2.60617
 Alpha virt. eigenvalues --    2.61081   2.72699   2.75285   2.83555   2.91233
 Alpha virt. eigenvalues --    2.93135   2.97218   2.99635   3.00189   3.04209
 Alpha virt. eigenvalues --    3.25707   4.02591   4.45942   4.62312   4.69367
 Alpha virt. eigenvalues --    4.87739   5.05607
          Condensed to atoms (all electrons):
               1          2          3          4          5          6
     1  N    7.094179   0.321478   0.299750  -0.033065  -0.048923  -0.085470
     2  H    0.321478   0.364414  -0.037584  -0.004770   0.004956  -0.000295
     3  C    0.299750  -0.037584   4.962797   0.403226   0.405843   0.334978
     4  H   -0.033065  -0.004770   0.403226   0.525966  -0.027807  -0.035306
     5  H   -0.048923   0.004956   0.405843  -0.027807   0.559185  -0.055332
     6  C   -0.085470  -0.000295   0.334978  -0.035306  -0.055332   5.202246
     7  H    0.002695   0.000769  -0.037794  -0.004358   0.003940   0.394931
     8  H    0.004466  -0.000025  -0.032575   0.001419  -0.002529   0.389762
     9  C   -0.085562  -0.000298  -0.062200   0.003839  -0.000449   0.325244
    10  H    0.002707   0.000768   0.003276  -0.000159  -0.000019  -0.038420
    11  H    0.004464  -0.000025   0.003075  -0.000066   0.000180  -0.034057
    12  C    0.299555  -0.037564  -0.096251   0.006219  -0.001791  -0.062088
    13  H   -0.033079  -0.004774   0.006225  -0.000115  -0.000181   0.003827
    14  H   -0.048991   0.004957  -0.001808  -0.000180   0.003646  -0.000441
    15  O   -0.003780   0.011668   0.000197   0.000091  -0.000002  -0.000045
    16  H    0.000195  -0.000281  -0.000017  -0.000007   0.000000   0.000009
    17  H    0.000175  -0.000277  -0.000008  -0.000003   0.000000   0.000001
               7          8          9         10         11         12
     1  N    0.002695   0.004466  -0.085562   0.002707   0.004464   0.299555
     2  H    0.000769  -0.000025  -0.000298   0.000768  -0.000025  -0.037564
     3  C   -0.037794  -0.032575  -0.062200   0.003276   0.003075  -0.096251
     4  H   -0.004358   0.001419   0.003839  -0.000159  -0.000066   0.006219
     5  H    0.003940  -0.002529  -0.000449  -0.000019   0.000180  -0.001791
     6  C    0.394931   0.389762   0.325244  -0.038420  -0.034057  -0.062088
     7  H    0.549908  -0.027073  -0.038459  -0.006520   0.002708   0.003270
     8  H   -0.027073   0.537520  -0.033997   0.002705  -0.003739   0.003065
     9  C   -0.038459  -0.033997   5.202496   0.394899   0.389676   0.335120
    10  H   -0.006520   0.002705   0.394899   0.549709  -0.027035  -0.037820
    11  H    0.002708  -0.003739   0.389676  -0.027035   0.537824  -0.032548
    12  C    0.003270   0.003065   0.335120  -0.037820  -0.032548   4.962536
    13  H   -0.000159  -0.000066  -0.035258  -0.004341   0.001416   0.403303
    14  H   -0.000019   0.000179  -0.055320   0.003938  -0.002526   0.405828
    15  O    0.000082   0.000000  -0.000045   0.000082   0.000000   0.000197
    16  H    0.000013  -0.000000   0.000009   0.000013  -0.000000  -0.000017
    17  H   -0.000001  -0.000000   0.000001  -0.000001  -0.000000  -0.000008
              13         14         15         16         17
     1  N   -0.033079  -0.048991  -0.003780   0.000195   0.000175
     2  H   -0.004774   0.004957   0.011668  -0.000281  -0.000277
     3  C    0.006225  -0.001808   0.000197  -0.000017  -0.000008
     4  H   -0.000115  -0.000180   0.000091  -0.000007  -0.000003
     5  H   -0.000181   0.003646  -0.000002   0.000000   0.000000
     6  C    0.003827  -0.000441  -0.000045   0.000009   0.000001
     7  H   -0.000159  -0.000019   0.000082   0.000013  -0.000001
     8  H   -0.000066   0.000179   0.000000  -0.000000  -0.000000
     9  C   -0.035258  -0.055320  -0.000045   0.000009   0.000001
    10  H   -0.004341   0.003938   0.000082   0.000013  -0.000001
    11  H    0.001416  -0.002526   0.000000  -0.000000  -0.000000
    12  C    0.403303   0.405828   0.000197  -0.000017  -0.000008
    13  H    0.525624  -0.027808   0.000091  -0.000007  -0.000003
    14  H   -0.027808   0.559488  -0.000002   0.000000   0.000000
    15  O    0.000091  -0.000002   8.331626   0.264423   0.265492
    16  H   -0.000007   0.000000   0.264423   0.313742  -0.017667
    17  H   -0.000003   0.000000   0.265492  -0.017667   0.309066
 Mulliken charges:
               1
     1  N   -0.690795
     2  H    0.376883
     3  C   -0.151131
     4  H    0.165076
     5  H    0.159280
     6  C   -0.339545
     7  H    0.156067
     8  H    0.160888
     9  C   -0.339697
    10  H    0.156220
    11  H    0.160652
    12  C   -0.151006
    13  H    0.165304
    14  H    0.159056
    15  O   -0.870074
    16  H    0.439589
    17  H    0.443233
 Sum of Mulliken charges =  -0.00000
 Mulliken charges with hydrogens summed into heavy atoms:
               1
     1  N   -0.313912
     3  C    0.173225
     6  C   -0.022590
     9  C   -0.022826
    12  C    0.173354
    15  O    0.012748
 Electronic spatial extent (au):  <R**2>=            840.1250
 Charge=             -0.0000 electrons
 Dipole moment (field-independent basis, Debye):
    X=             -2.5661    Y=              0.0068    Z=              2.4765  Tot=              3.5662
 Quadrupole moment (field-independent basis, Debye-Ang):
   XX=            -23.0627   YY=            -39.0011   ZZ=            -41.5836
   XY=             -0.0029   XZ=             -3.5864   YZ=             -0.0024
 Traceless Quadrupole moment (field-independent basis, Debye-Ang):
   XX=             11.4864   YY=             -4.4520   ZZ=             -7.0344
   XY=             -0.0029   XZ=             -3.5864   YZ=             -0.0024
 Octapole moment (field-independent basis, Debye-Ang**2):
  XXX=            -89.0979  YYY=             -0.0164  ZZZ=             12.3073  XYY=             -4.9183
  XXY=              0.0163  XXZ=              7.3959  XZZ=            -15.1023  YZZ=              0.0433
  YYZ=             -1.2138  XYZ=             -0.0385
 Hexadecapole moment (field-independent basis, Debye-Ang**3):
 XXXX=           -272.1200 YYYY=           -233.8048 ZZZZ=           -223.8335 XXXY=              0.0164
 XXXZ=            -31.5412 YYYX=              0.0056 YYYZ=              0.0040 ZZZX=            -22.2511
 ZZZY=             -0.0246 XXYY=           -145.5773 XXZZ=           -105.6035 YYZZ=            -74.6142
 XXYZ=              0.1419 YYXZ=             -1.9713 ZZXY=             -0.0488
 N-N= 2.511719016408D+02 E-N=-1.175288733020D+03  KE= 2.866406251222D+02
 1\1\GINC-C403-073\FOpt\RHF\6-31G(d)\C4H11N1O1\TG455515\31-Mar-2021\1\\
 # HF/6-31G* Opt=(Z-matrix,MaxCycles=100) Geom=PrintInputOrient\\<qmtoo
 l> simtype="Geometry optimization" </qmtool> PRLD-DON-H1\\0,1\N,0,0.84
 39999819,0.4560000002,0.9229999781\H,0,1.371999979,0.4950000048,1.7979
 999781\C,0,1.6430000067,1.125,-0.112999998\H,0,2.,2.0969998837,0.24300
 00007\H,0,0.9869999886,1.307000041,-0.9710000157\C,0,2.7790000439,0.15
 29999971,-0.5040000081\H,0,3.6889998913,0.3840000033,0.0590000004\H,0,
 3.0309998989,0.2220000029,-1.5659999847\C,0,2.2309999466,-1.2400000095
 ,-0.1120000035\H,0,2.8659999371,-1.7070000172,0.6470000148\H,0,2.18499
 99428,-1.9279999733,-0.9620000124\C,0,0.8299999833,-0.9409999847,0.469
 0000117\H,0,0.5419999957,-1.6089999676,1.2860000134\H,0,0.0680000037,-
 1.0269999504,-0.3140000105\X,2,1.,1,90.,12,dih,0\O,2,rAH,15,90.,1,180.
 ,0\H,16,0.9572,2,127.74,15,0.,0\H,16,0.9572,2,127.74,15,180.,0\\rAH=2.
 31431013\dih=55.18968966\\Version=ES64L-G16RevA.03\State=1-A\HF=-287.1
 576535\RMSD=2.295e-09\RMSF=5.770e-03\Dipole=1.0477334,-0.1525515,0.920
 6161\Quadrupole=-3.9720647,-3.4779915,7.4500563,1.4262971,4.1274101,1.
 4035416\PG=C01 [X(C4H11N1O1)]\\@


       THE DEATH-KNELL OF THE ATOM

 SO THE ATOMS IN TURN, WE NOW CLEARLY DISCERN,
 FLY TO BITS WITH THE UTMOST FACILITY;
 THEY WEND ON THEIR WAY, AND, IN SPLITTING, DISPLAY
 AN ABSOLUTE LACK OF STABILITY.

          SIR WM. RAMSAY, 1905
 Job cpu time:       0 days  0 hours  2 minutes 38.0 seconds.
 Elapsed time:       0 days  0 hours  2 minutes 34.7 seconds.
 File lengths (MBytes):  RWF=     10 Int=      0 D2E=      0 Chk=      2 Scr=      1
 Normal termination of Gaussian 16 at Wed Mar 31 17:10:15 2021.
