 Entering Gaussian System, Link 0=g16
 Initial command:
 /home1/apps/gaussian/16rA.03/g16/l1.exe "/tmp/Gau-128468.inp" -scrdir="/tmp/"
 Entering Link 1 = /home1/apps/gaussian/16rA.03/g16/l1.exe PID=    128469.
  
 Copyright (c) 1988,1990,1992,1993,1995,1998,2003,2009,2016,
            Gaussian, Inc.  All Rights Reserved.
  
 This is part of the Gaussian(R) 16 program.  It is based on
 the Gaussian(R) 09 system (copyright 2009, Gaussian, Inc.),
 the Gaussian(R) 03 system (copyright 2003, Gaussian, Inc.),
 the Gaussian(R) 98 system (copyright 1998, Gaussian, Inc.),
 the Gaussian(R) 94 system (copyright 1995, Gaussian, Inc.),
 the Gaussian 92(TM) system (copyright 1992, Gaussian, Inc.),
 the Gaussian 90(TM) system (copyright 1990, Gaussian, Inc.),
 the Gaussian 88(TM) system (copyright 1988, Gaussian, Inc.),
 the Gaussian 86(TM) system (copyright 1986, Carnegie Mellon
 University), and the Gaussian 82(TM) system (copyright 1983,
 Carnegie Mellon University). Gaussian is a federally registered
 trademark of Gaussian, Inc.
  
 This software contains proprietary and confidential information,
 including trade secrets, belonging to Gaussian, Inc.
  
 This software is provided under written license and may be
 used, copied, transmitted, or stored only in accord with that
 written license.
  
 The following legend is applicable only to US Government
 contracts under FAR:
  
                    RESTRICTED RIGHTS LEGEND
  
 Use, reproduction and disclosure by the US Government is
 subject to restrictions as set forth in subparagraphs (a)
 and (c) of the Commercial Computer Software - Restricted
 Rights clause in FAR 52.227-19.
  
 Gaussian, Inc.
 340 Quinnipiac St., Bldg. 40, Wallingford CT 06492
  
  
 ---------------------------------------------------------------
 Warning -- This program may not be used in any manner that
 competes with the business of Gaussian, Inc. or will provide
 assistance to any competitor of Gaussian, Inc.  The licensee
 of this program is prohibited from giving any competitor of
 Gaussian, Inc. access to this program.  By using this program,
 the user acknowledges that Gaussian, Inc. is engaged in the
 business of creating and licensing software in the field of
 computational chemistry and represents and warrants to the
 licensee that it is not a competitor of Gaussian, Inc. and that
 it will not use this program in any manner prohibited above.
 ---------------------------------------------------------------
  

 Cite this work as:
 Gaussian 16, Revision A.03,
 M. J. Frisch, G. W. Trucks, H. B. Schlegel, G. E. Scuseria, 
 M. A. Robb, J. R. Cheeseman, G. Scalmani, V. Barone, 
 G. A. Petersson, H. Nakatsuji, X. Li, M. Caricato, A. V. Marenich, 
 J. Bloino, B. G. Janesko, R. Gomperts, B. Mennucci, H. P. Hratchian, 
 J. V. Ortiz, A. F. Izmaylov, J. L. Sonnenberg, D. Williams-Young, 
 F. Ding, F. Lipparini, F. Egidi, J. Goings, B. Peng, A. Petrone, 
 T. Henderson, D. Ranasinghe, V. G. Zakrzewski, J. Gao, N. Rega, 
 G. Zheng, W. Liang, M. Hada, M. Ehara, K. Toyota, R. Fukuda, 
 J. Hasegawa, M. Ishida, T. Nakajima, Y. Honda, O. Kitao, H. Nakai, 
 T. Vreven, K. Throssell, J. A. Montgomery, Jr., J. E. Peralta, 
 F. Ogliaro, M. J. Bearpark, J. J. Heyd, E. N. Brothers, K. N. Kudin, 
 V. N. Staroverov, T. A. Keith, R. Kobayashi, J. Normand, 
 K. Raghavachari, A. P. Rendell, J. C. Burant, S. S. Iyengar, 
 J. Tomasi, M. Cossi, J. M. Millam, M. Klene, C. Adamo, R. Cammi, 
 J. W. Ochterski, R. L. Martin, K. Morokuma, O. Farkas, 
 J. B. Foresman, and D. J. Fox, Gaussian, Inc., Wallingford CT, 2016.
 
 ******************************************
 Gaussian 16:  ES64L-G16RevA.03 25-Dec-2016
                31-Mar-2021 
 ******************************************
 %chk=PRLD-DON-H42.chk
 %nproc=1
 Will use up to    1 processors via shared memory.
 %mem=1GB
 --------------------------------------------------------------
 # HF/6-31G* Opt=(Z-matrix,MaxCycles=100) Geom=PrintInputOrient
 --------------------------------------------------------------
 1/6=100,10=7,18=40,38=1/1,3;
 2/9=2000,12=2,17=6,18=5,29=3,40=1/2;
 3/5=1,6=6,7=1,11=9,25=1,30=1,71=1/1,2,3;
 4//1;
 5/5=2,38=5/2;
 6/7=2,8=2,9=2,10=2,28=1/1;
 7/29=1/1,2,3,16;
 1/6=100,10=7,18=40/3(2);
 2/9=2000,29=3/2;
 99//99;
 2/9=2000,29=3/2;
 3/5=1,6=6,7=1,11=9,25=1,30=1,71=1/1,2,3;
 4/5=5,16=3,69=1/1;
 5/5=2,38=5/2;
 7//1,2,3,16;
 1/6=100,18=40/3(-5);
 2/9=2000,29=3/2;
 6/7=2,8=2,9=2,10=2,19=2,28=1/1;
 99/9=1/99;
 ---------------------------------------------------------------
 <qmtool> simtype="Geometry optimization" </qmtool> PRLD-DON-H42
 ---------------------------------------------------------------
 Symbolic Z-matrix:
 Charge =  0 Multiplicity = 1
 N1                    0.844     0.456     0.923 
 H2                    1.372     0.495     1.798 
 C3                    1.643     1.125    -0.113 
 H4                    2.        2.097     0.243 
 H5                    0.987     1.307    -0.971 
 C6                    2.779     0.153    -0.504 
 H7                    3.689     0.384     0.059 
 H8                    3.031     0.222    -1.566 
 C9                    2.231    -1.24     -0.112 
 H10                   2.866    -1.707     0.647 
 H11                   2.185    -1.928    -0.962 
 C12                   0.83     -0.941     0.469 
 H13                   0.542    -1.609     1.286 
 H14                   0.068    -1.027    -0.314 
 x                    H11   1.       C9    90.      C12  dih      0
 Ow                   H11  rAH      x     90.      C9    180.     0
 H1w                  Ow    0.9572   H11   127.74   x     0.       0
 H2w                  Ow    0.9572   H11   127.74   x     180.     0
       Variables:
  rAH                   2.                       
  dih                   0.                       
 

 GradGradGradGradGradGradGradGradGradGradGradGradGradGradGradGradGradGrad
 Berny optimization.
 Initialization pass.
                       ----------------------------
                       !    Initial Parameters    !
                       ! (Angstroms and Degrees)  !
 ----------------------                            ----------------------
 !      Name          Value   Derivative information (Atomic Units)     !
 ------------------------------------------------------------------------
 !       rAH         2.0      estimate D2E/DX2                          !
 !       dih         0.0      estimate D2E/DX2                          !
 ------------------------------------------------------------------------
 Trust Radius=3.00D-01 FncErr=1.00D-07 GrdErr=1.00D-07 EigMax=2.50D+02 EigMin=1.00D-04
 Number of steps in this run=    100 maximum allowed number of steps=    100.
 GradGradGradGradGradGradGradGradGradGradGradGradGradGradGradGradGradGrad

 ---------------------------------------------------------------------------------------------------
                            Z-MATRIX (ANGSTROMS AND DEGREES)
   CD    Cent   Atom    N1       Length/X        N2       Alpha/Y        N3        Beta/Z          J
 ---------------------------------------------------------------------------------------------------
      1      1  N        0   0.844000          0.456000          0.923000
      2      2  H        0   1.372000          0.495000          1.798000
      3      3  C        0   1.643000          1.125000         -0.113000
      4      4  H        0   2.000000          2.097000          0.243000
      5      5  H        0   0.987000          1.307000         -0.971000
      6      6  C        0   2.779000          0.153000         -0.504000
      7      7  H        0   3.689000          0.384000          0.059000
      8      8  H        0   3.031000          0.222000         -1.566000
      9      9  C        0   2.231000         -1.240000         -0.112000
     10     10  H        0   2.866000         -1.707000          0.647000
     11     11  H        0   2.185000         -1.928000         -0.962000
     12     12  C        0   0.830000         -0.941000          0.469000
     13     13  H        0   0.542000         -1.609000          1.286000
     14     14  H        0   0.068000         -1.027000         -0.314000
     15         X       11   1.000000(    14)      9   90.000(    30)     12    0.000(    45)      0
     16     15  O       11   2.000000(    15)     15   90.000(    31)      9  180.000(    46)      0
     17     16  H       16   0.957200(    16)     11  127.740(    32)     15    0.000(    47)      0
     18     17  H       16   0.957200(    17)     11  127.740(    33)     15  180.000(    48)      0
 ---------------------------------------------------------------------------------------------------
                         Z-Matrix orientation:                         
 ---------------------------------------------------------------------
 Center     Atomic      Atomic             Coordinates (Angstroms)
 Number     Number       Type             X           Y           Z
 ---------------------------------------------------------------------
      1          7           0        0.844000    0.456000    0.923000
      2          1           0        1.372000    0.495000    1.798000
      3          6           0        1.643000    1.125000   -0.113000
      4          1           0        2.000000    2.097000    0.243000
      5          1           0        0.987000    1.307000   -0.971000
      6          6           0        2.779000    0.153000   -0.504000
      7          1           0        3.689000    0.384000    0.059000
      8          1           0        3.031000    0.222000   -1.566000
      9          6           0        2.231000   -1.240000   -0.112000
     10          1           0        2.866000   -1.707000    0.647000
     11          1           0        2.185000   -1.928000   -0.962000
     12          6           0        0.830000   -0.941000    0.469000
     13          1           0        0.542000   -1.609000    1.286000
     14          1           0        0.068000   -1.027000   -0.314000
     15         -1           0        1.190205   -1.973890   -0.871020
     16          8           0        2.100944   -3.185179   -2.515201
     17          1           0        1.323311   -3.588195   -2.901331
     18          1           0        2.829331   -3.518723   -3.039065
 ---------------------------------------------------------------------
                    Distance matrix (angstroms):
                    1          2          3          4          5
     1  N    0.000000
     2  H    1.022707   0.000000
     3  C    1.469441   2.030335   0.000000
     4  H    2.119343   2.319227   1.094974   0.000000
     5  H    2.081318   2.911173   1.095274   1.767502   0.000000
     6  C    2.423296   2.719525   1.545368   2.223508   2.181987
     7  H    2.974173   2.899126   2.182838   2.412664   3.035397
     8  H    3.321573   3.760759   2.202989   2.801975   2.389390
     9  C    2.423099   2.719597   2.437000   3.363771   2.961862
    10  H    2.973757   2.899248   3.177035   3.922192   3.902917
    11  H    3.321891   3.761582   3.214868   4.205577   3.449712
    12  C    1.468986   2.030296   2.295223   3.263345   2.674276
    13  H    2.118301   2.319021   3.262539   4.116801   3.714180
    14  H    2.081258   2.911605   2.674347   3.715138   2.593023
    15  X    3.040186   3.640348   3.222225   4.297552   3.288697
    16  O    5.163267   5.716536   4.955596   5.959806   4.879048
    17  H    5.586659   6.225638   5.485545   6.531935   5.272781
    18  H    5.952976   6.452208   5.615461   6.557140   5.564052
                    6          7          8          9         10
     6  C    0.000000
     7  H    1.094728   0.000000
     8  H    1.093668   1.760634   0.000000
     9  C    1.547390   2.189151   2.211687   0.000000
    10  H    2.189057   2.322790   2.940346   1.094255   0.000000
    11  H    2.212049   2.941054   2.388102   1.094514   1.761103
    12  C    2.437656   3.177673   3.215306   1.545886   2.182598
    13  H    3.363467   3.921886   4.204948   2.223350   2.412240
    14  H    2.962773   3.904061   3.450634   2.182829   3.035577
    15  X    2.680044   3.559292   2.948467   1.482552   2.276819
    16  O    3.955772   4.678405   3.657165   3.094514   3.573492
    17  H    4.675764   5.489843   4.383708   3.757431   4.302260
    18  H    4.462133   5.056509   4.025369   3.757431   4.107403
                   11         12         13         14         15
    11  H    0.000000
    12  C    2.204077   0.000000
    13  H    2.802626   1.093918   0.000000
    14  H    2.390271   1.095960   1.767314   0.000000
    15  X    1.000000   1.729816   2.281677   1.570419   0.000000
    16  O    2.000000   3.944249   4.400430   3.692680   2.236068
    17  H    2.694394   4.313946   4.696956   3.850949   2.597279
    18  H    2.694394   4.790459   5.252153   4.610815   3.126286
                   16         17         18
    16  O    0.000000
    17  H    0.957200   0.000000
    18  H    0.957200   1.513901   0.000000
 Stoichiometry    C4H11NO
 Framework group  C1[X(C4H11NO)]
 Deg. of freedom    45
 Full point group                 C1      NOp   1
 Largest Abelian subgroup         C1      NOp   1
 Largest concise Abelian subgroup C1      NOp   1
                         Standard orientation:                         
 ---------------------------------------------------------------------
 Center     Atomic      Atomic             Coordinates (Angstroms)
 Number     Number       Type             X           Y           Z
 ---------------------------------------------------------------------
      1          7           0       -1.879165   -0.710248   -0.181337
      2          1           0       -2.351827   -0.721026    0.725528
      3          6           0       -1.662749    0.693652   -0.557484
      4          1           0       -2.585191    1.271453   -0.438251
      5          1           0       -1.393787    0.714309   -1.619019
      6          6           0       -0.489482    1.215103    0.302570
      7          1           0       -0.867747    1.724899    1.194452
      8          1           0        0.130174    1.933963   -0.240915
      9          6           0        0.287341   -0.065405    0.691495
     10          1           0        0.298514   -0.197340    1.777711
     11          1           0        1.329730   -0.042074    0.358567
     12          6           0       -0.511024   -1.205975    0.019575
     13          1           0       -0.518570   -2.135372    0.596480
     14          1           0       -0.092447   -1.431891   -0.967787
     15          8           0        3.234483    0.000559   -0.249792
     16          1           0        3.662649   -0.582963   -0.876216
     17          1           0        3.922277    0.609059    0.020206
 ---------------------------------------------------------------------
 Rotational constants (GHZ):           5.7993607           1.5528338           1.3730606
 Standard basis: 6-31G(d) (6D, 7F)
 There are   112 symmetry adapted cartesian basis functions of A   symmetry.
 There are   112 symmetry adapted basis functions of A   symmetry.
   112 basis functions,   212 primitive gaussians,   112 cartesian basis functions
    25 alpha electrons       25 beta electrons
       nuclear repulsion energy       249.9303529531 Hartrees.
 NAtoms=   17 NActive=   17 NUniq=   17 SFac= 1.00D+00 NAtFMM=   60 NAOKFM=F Big=F
 Integral buffers will be    131072 words long.
 Raffenetti 1 integral format.
 Two-electron integral symmetry is turned on.
 One-electron integrals computed using PRISM.
 NBasis=   112 RedAO= T EigKep=  3.06D-03  NBF=   112
 NBsUse=   112 1.00D-06 EigRej= -1.00D+00 NBFU=   112
 ExpMin= 1.61D-01 ExpMax= 5.48D+03 ExpMxC= 8.25D+02 IAcc=3 IRadAn=         5 AccDes= 0.00D+00
 Harris functional with IExCor=  205 and IRadAn=       5 diagonalized for initial guess.
 HarFok:  IExCor=  205 AccDes= 0.00D+00 IRadAn=         5 IDoV= 1 UseB2=F ITyADJ=14
 ICtDFT=  3500011 ScaDFX=  1.000000  1.000000  1.000000  1.000000
 FoFCou: FMM=F IPFlag=           0 FMFlag=      100000 FMFlg1=           0
         NFxFlg=           0 DoJE=T BraDBF=F KetDBF=T FulRan=T
         wScrn=  0.000000 ICntrl=       500 IOpCl=  0 I1Cent=   200000004 NGrid=           0
         NMat0=    1 NMatS0=      1 NMatT0=    0 NMatD0=    1 NMtDS0=    0 NMtDT0=    0
 Petite list used in FoFCou.
 Keep R1 ints in memory in canonical form, NReq=20924062.
 Requested convergence on RMS density matrix=1.00D-08 within 128 cycles.
 Requested convergence on MAX density matrix=1.00D-06.
 Requested convergence on             energy=1.00D-06.
 No special actions if energy rises.
 SCF Done:  E(RHF) =  -287.150398171     A.U. after   12 cycles
            NFock= 12  Conv=0.66D-08     -V/T= 2.0016

 **********************************************************************

            Population analysis using the SCF density.

 **********************************************************************

 Orbital symmetries:
       Occupied  (A) (A) (A) (A) (A) (A) (A) (A) (A) (A) (A) (A)
                 (A) (A) (A) (A) (A) (A) (A) (A) (A) (A) (A) (A)
                 (A)
       Virtual   (A) (A) (A) (A) (A) (A) (A) (A) (A) (A) (A) (A)
                 (A) (A) (A) (A) (A) (A) (A) (A) (A) (A) (A) (A)
                 (A) (A) (A) (A) (A) (A) (A) (A) (A) (A) (A) (A)
                 (A) (A) (A) (A) (A) (A) (A) (A) (A) (A) (A) (A)
                 (A) (A) (A) (A) (A) (A) (A) (A) (A) (A) (A) (A)
                 (A) (A) (A) (A) (A) (A) (A) (A) (A) (A) (A) (A)
                 (A) (A) (A) (A) (A) (A) (A) (A) (A) (A) (A) (A)
                 (A) (A) (A)
 The electronic state is 1-A.
 Alpha  occ. eigenvalues --  -20.57427 -15.52705 -11.22921 -11.22602 -11.20171
 Alpha  occ. eigenvalues --  -11.18840  -1.35681  -1.20197  -1.00019  -0.95297
 Alpha  occ. eigenvalues --   -0.79918  -0.76552  -0.72106  -0.66039  -0.62875
 Alpha  occ. eigenvalues --   -0.58869  -0.57246  -0.56394  -0.51273  -0.49107
 Alpha  occ. eigenvalues --   -0.47594  -0.45817  -0.45541  -0.43611  -0.35825
 Alpha virt. eigenvalues --    0.19684   0.22867   0.27218   0.29310   0.30029
 Alpha virt. eigenvalues --    0.30911   0.32267   0.34555   0.35310   0.36677
 Alpha virt. eigenvalues --    0.38990   0.39554   0.42772   0.47369   0.51411
 Alpha virt. eigenvalues --    0.54472   0.74617   0.77853   0.77983   0.81004
 Alpha virt. eigenvalues --    0.82014   0.85322   0.91896   0.93774   0.93966
 Alpha virt. eigenvalues --    0.96542   0.99835   1.03128   1.06235   1.10652
 Alpha virt. eigenvalues --    1.12275   1.14024   1.14497   1.15044   1.16164
 Alpha virt. eigenvalues --    1.18267   1.20500   1.20707   1.22499   1.23321
 Alpha virt. eigenvalues --    1.25004   1.25499   1.27772   1.37275   1.42202
 Alpha virt. eigenvalues --    1.50936   1.52482   1.54892   1.61270   1.66175
 Alpha virt. eigenvalues --    1.72766   1.92285   2.01864   2.02623   2.04697
 Alpha virt. eigenvalues --    2.10655   2.13284   2.14417   2.19843   2.22411
 Alpha virt. eigenvalues --    2.25733   2.31212   2.35920   2.36635   2.43937
 Alpha virt. eigenvalues --    2.45086   2.45193   2.52791   2.59119   2.60533
 Alpha virt. eigenvalues --    2.61866   2.73568   2.75205   2.83248   2.92044
 Alpha virt. eigenvalues --    2.93285   2.97296   2.99418   3.01012   3.04763
 Alpha virt. eigenvalues --    3.25720   4.08897   4.36650   4.64731   4.71782
 Alpha virt. eigenvalues --    4.88819   5.09727
          Condensed to atoms (all electrons):
               1          2          3          4          5          6
     1  N    7.067602   0.327211   0.296561  -0.033874  -0.047789  -0.085953
     2  H    0.327211   0.437329  -0.042577  -0.005491   0.005776  -0.000697
     3  C    0.296561  -0.042577   4.974182   0.402760   0.405466   0.335116
     4  H   -0.033874  -0.005491   0.402760   0.531259  -0.027404  -0.035663
     5  H   -0.047789   0.005776   0.405466  -0.027404   0.552328  -0.053761
     6  C   -0.085953  -0.000697   0.335116  -0.035663  -0.053761   5.202788
     7  H    0.002766   0.000972  -0.038740  -0.004439   0.003955   0.394706
     8  H    0.004352  -0.000031  -0.032754   0.001450  -0.002681   0.391382
     9  C   -0.085682  -0.000526  -0.060267   0.003851  -0.000457   0.319125
    10  H    0.002685   0.000988   0.003466  -0.000172  -0.000015  -0.041044
    11  H    0.003739   0.000001   0.002276  -0.000052   0.000167  -0.028505
    12  C    0.290973  -0.042609  -0.095740   0.006247  -0.001961  -0.061552
    13  H   -0.033824  -0.005517   0.006220  -0.000118  -0.000175   0.003961
    14  H   -0.048260   0.005801  -0.001932  -0.000175   0.003480  -0.000329
    15  O   -0.000002   0.000000  -0.000008   0.000000  -0.000001   0.000162
    16  H    0.000000  -0.000000   0.000001  -0.000000   0.000000  -0.000017
    17  H    0.000000  -0.000000   0.000001  -0.000000   0.000000  -0.000026
               7          8          9         10         11         12
     1  N    0.002766   0.004352  -0.085682   0.002685   0.003739   0.290973
     2  H    0.000972  -0.000031  -0.000526   0.000988   0.000001  -0.042609
     3  C   -0.038740  -0.032754  -0.060267   0.003466   0.002276  -0.095740
     4  H   -0.004439   0.001450   0.003851  -0.000172  -0.000052   0.006247
     5  H    0.003955  -0.002681  -0.000457  -0.000015   0.000167  -0.001961
     6  C    0.394706   0.391382   0.319125  -0.041044  -0.028505  -0.061552
     7  H    0.556537  -0.027567  -0.038395  -0.006656   0.002160   0.003365
     8  H   -0.027567   0.535102  -0.033880   0.002771  -0.002715   0.002995
     9  C   -0.038395  -0.033880   5.269554   0.391876   0.391061   0.336189
    10  H   -0.006656   0.002771   0.391876   0.564908  -0.021069  -0.040368
    11  H    0.002160  -0.002715   0.391061  -0.021069   0.416536  -0.027929
    12  C    0.003365   0.002995   0.336189  -0.040368  -0.027929   4.975032
    13  H   -0.000167  -0.000065  -0.034875  -0.004490   0.000950   0.402945
    14  H   -0.000017   0.000169  -0.054339   0.004029  -0.001666   0.405324
    15  O   -0.000007   0.000406  -0.012827   0.000300  -0.003333   0.000253
    16  H    0.000000  -0.000013   0.000667  -0.000016   0.000818  -0.000023
    17  H    0.000001  -0.000025   0.000705  -0.000028   0.000777  -0.000011
              13         14         15         16         17
     1  N   -0.033824  -0.048260  -0.000002   0.000000   0.000000
     2  H   -0.005517   0.005801   0.000000  -0.000000  -0.000000
     3  C    0.006220  -0.001932  -0.000008   0.000001   0.000001
     4  H   -0.000118  -0.000175   0.000000  -0.000000  -0.000000
     5  H   -0.000175   0.003480  -0.000001   0.000000   0.000000
     6  C    0.003961  -0.000329   0.000162  -0.000017  -0.000026
     7  H   -0.000167  -0.000017  -0.000007   0.000000   0.000001
     8  H   -0.000065   0.000169   0.000406  -0.000013  -0.000025
     9  C   -0.034875  -0.054339  -0.012827   0.000667   0.000705
    10  H   -0.004490   0.004029   0.000300  -0.000016  -0.000028
    11  H    0.000950  -0.001666  -0.003333   0.000818   0.000777
    12  C    0.402945   0.405324   0.000253  -0.000023  -0.000011
    13  H    0.532145  -0.027761  -0.000007   0.000002   0.000000
    14  H   -0.027761   0.556886   0.000237  -0.000018  -0.000006
    15  O   -0.000007   0.000237   8.355096   0.262972   0.263076
    16  H    0.000002  -0.000018   0.262972   0.312874  -0.017091
    17  H    0.000000  -0.000006   0.263076  -0.017091   0.312875
 Mulliken charges:
               1
     1  N   -0.660504
     2  H    0.319372
     3  C   -0.154029
     4  H    0.161820
     5  H    0.163071
     6  C   -0.339693
     7  H    0.151525
     8  H    0.161103
     9  C   -0.391780
    10  H    0.142835
    11  H    0.266783
    12  C   -0.153129
    13  H    0.160775
    14  H    0.158577
    15  O   -0.866317
    16  H    0.439843
    17  H    0.439749
 Sum of Mulliken charges =  -0.00000
 Mulliken charges with hydrogens summed into heavy atoms:
               1
     1  N   -0.341132
     3  C    0.170861
     6  C   -0.027065
     9  C    0.017837
    12  C    0.166223
    15  O    0.013275
 Electronic spatial extent (au):  <R**2>=            902.6989
 Charge=             -0.0000 electrons
 Dipole moment (field-independent basis, Debye):
    X=              3.6221    Y=              0.8307    Z=              0.3280  Tot=              3.7306
 Quadrupole moment (field-independent basis, Debye-Ang):
   XX=            -25.9521   YY=            -39.1270   ZZ=            -38.0807
   XY=             -2.1974   XZ=             -6.5593   YZ=             -0.4414
 Traceless Quadrupole moment (field-independent basis, Debye-Ang):
   XX=              8.4345   YY=             -4.7404   ZZ=             -3.6941
   XY=             -2.1974   XZ=             -6.5593   YZ=             -0.4414
 Octapole moment (field-independent basis, Debye-Ang**2):
  XXX=            102.8722  YYY=             -1.2630  ZZZ=             -2.3191  XYY=             13.0523
  XXY=             10.9556  XXZ=             -4.2608  XZZ=              8.4579  YZZ=             -1.4787
  YYZ=              0.6075  XYZ=              8.7454
 Hexadecapole moment (field-independent basis, Debye-Ang**3):
 XXXX=           -397.6465 YYYY=           -237.2075 ZZZZ=           -109.3302 XXXY=              3.4106
 XXXZ=            -77.6443 YYYX=             -0.3663 YYYZ=             -3.7269 ZZZX=            -14.2756
 ZZZY=              0.4903 XXYY=           -153.4068 XXZZ=           -131.3810 YYZZ=            -57.3612
 XXYZ=              9.4385 YYXZ=             -9.3722 ZZXY=             -3.9341
 N-N= 2.499303529531D+02 E-N=-1.172954211771D+03  KE= 2.866852345979D+02
 Calling FoFJK, ICntrl=      2127 FMM=F ISym2X=0 I1Cent= 0 IOpClX= 0 NMat=1 NMatS=1 NMatT=0.
 ***** Axes restored to original set *****
 -------------------------------------------------------------------
 Center     Atomic                   Forces (Hartrees/Bohr)
 Number     Number              X              Y              Z
 -------------------------------------------------------------------
      1        7           0.013705017   -0.002672498    0.005356844
      2        1          -0.009225732   -0.000107878   -0.013124561
      3        6          -0.003623905    0.006301185    0.001977750
      4        1          -0.002724927   -0.006791415   -0.002877567
      5        1           0.004124582   -0.000435583    0.005192592
      6        6           0.004594095    0.002377435   -0.000272375
      7        1          -0.004773998   -0.000769313   -0.003621512
      8        1          -0.001618877   -0.000389126    0.006066531
      9        6           0.000594377   -0.008805670   -0.003408488
     10        1          -0.003030590    0.003215627   -0.002749157
     11        1           0.000728793    0.010464454    0.013300408
     12        6          -0.004238528   -0.000191213    0.002756957
     13        1           0.001652444    0.004262668   -0.005550072
     14        1           0.004433897    0.000039059    0.005247588
     15        8          -0.001192486   -0.015392705   -0.019282234
     16        1           0.006876631    0.004727259    0.004847804
     17        1          -0.006280793    0.004167717    0.006139490
 -------------------------------------------------------------------
 Cartesian Forces:  Max     0.019282234 RMS     0.006374795
 -----------------------------------------------------------------------------------------------
                       Internal Coordinate Forces (Hartree/Bohr or radian)
  Cent   Atom   N1       Length/X         N2         Alpha/Y        N3         Beta/Z          J
 -----------------------------------------------------------------------------------------------
      1  N            0.013705(     1)     -0.002672(    19)      0.005357(    37)
      2  H           -0.009226(     2)     -0.000108(    20)     -0.013125(    38)
      3  C           -0.003624(     3)      0.006301(    21)      0.001978(    39)
      4  H           -0.002725(     4)     -0.006791(    22)     -0.002878(    40)
      5  H            0.004125(     5)     -0.000436(    23)      0.005193(    41)
      6  C            0.004594(     6)      0.002377(    24)     -0.000272(    42)
      7  H           -0.004774(     7)     -0.000769(    25)     -0.003622(    43)
      8  H           -0.001619(     8)     -0.000389(    26)      0.006067(    44)
      9  C            0.000807(     9)     -0.009067(    27)     -0.003208(    45)
     10  H           -0.003031(    10)      0.003216(    28)     -0.002749(    46)
     11  H           -0.000080(    11)      0.004221(    29)      0.004811(    47)
     12  C           -0.004239(    12)     -0.000184(    30)      0.002751(    48)
     13  H            0.001652(    13)      0.004263(    31)     -0.005550(    49)
     14  H            0.004434(    14)      0.000039(    32)      0.005248(    50)
         X       11   0.000000(    15)      9  -0.000376(    33)     12   0.000026(    51)     0
     15  O       11   0.010551(    16)     15  -0.000376(    34)      9   0.000688(    52)     0
     16  H       16  -0.009533(    17)     11  -0.002723(    35)     15   0.000014(    53)     0
     17  H       16  -0.009592(    18)     11  -0.002866(    36)     15   0.000012(    54)     0
 -----------------------------------------------------------------------------------------------
 Internal  Forces:  Max     0.013705017 RMS     0.004986959

 GradGradGradGradGradGradGradGradGradGradGradGradGradGradGradGradGradGrad
 Berny optimization.
 Search for a local minimum.
 Step number   1 out of a maximum of  100
 All quantities printed in internal units (Hartrees-Bohrs-Radians)
 Second derivative matrix not updated -- first step.
 The second derivative matrix:
                          rAH       dih
           rAH          0.04307
           dih          0.00000   0.00000
 ITU=  0
     Eigenvalues ---    0.00000   0.04307
 RFO step:  Lambda=-2.44643688D-03 EMin= 0.00000000D+00
 Linear search not attempted -- first point.
 Variable       Old X    -DE/DX   Delta X   Delta X   Delta X     New X
                                 (Linear)    (Quad)   (Total)
   rAH        3.77945   0.01055   0.00000   0.23183   0.23183   4.01129
   dih        0.00000   0.00003   0.00000   0.01069   0.01069   0.01069
         Item               Value     Threshold  Converged?
 Maximum Force            0.010551     0.000450     NO 
 RMS     Force            0.007461     0.000300     NO 
 Maximum Displacement     0.231834     0.001800     NO 
 RMS     Displacement     0.164105     0.001200     NO 
 Predicted change in Energy=-1.289103D-03
 GradGradGradGradGradGradGradGradGradGradGradGradGradGradGradGradGradGrad

 ---------------------------------------------------------------------------------------------------
                            Z-MATRIX (ANGSTROMS AND DEGREES)
   CD    Cent   Atom    N1       Length/X        N2       Alpha/Y        N3        Beta/Z          J
 ---------------------------------------------------------------------------------------------------
      1      1  N        0   0.844000          0.456000          0.923000
      2      2  H        0   1.372000          0.495000          1.798000
      3      3  C        0   1.643000          1.125000         -0.113000
      4      4  H        0   2.000000          2.097000          0.243000
      5      5  H        0   0.987000          1.307000         -0.971000
      6      6  C        0   2.779000          0.153000         -0.504000
      7      7  H        0   3.689000          0.384000          0.059000
      8      8  H        0   3.031000          0.222000         -1.566000
      9      9  C        0   2.231000         -1.240000         -0.112000
     10     10  H        0   2.866000         -1.707000          0.647000
     11     11  H        0   2.185000         -1.928000         -0.962000
     12     12  C        0   0.830000         -0.941000          0.469000
     13     13  H        0   0.542000         -1.609000          1.286000
     14     14  H        0   0.068000         -1.027000         -0.314000
     15         X       11   1.000000(    14)      9   90.000(    30)     12    0.612(    45)      0
     16     15  O       11   2.122681(    15)     15   90.000(    31)      9  180.000(    46)      0
     17     16  H       16   0.957200(    16)     11  127.740(    32)     15    0.000(    47)      0
     18     17  H       16   0.957200(    17)     11  127.740(    33)     15  180.000(    48)      0
 ---------------------------------------------------------------------------------------------------
                         Z-Matrix orientation:                         
 ---------------------------------------------------------------------
 Center     Atomic      Atomic             Coordinates (Angstroms)
 Number     Number       Type             X           Y           Z
 ---------------------------------------------------------------------
      1          7           0        0.844000    0.456000    0.923000
      2          1           0        1.372000    0.495000    1.798000
      3          6           0        1.643000    1.125000   -0.113000
      4          1           0        2.000000    2.097000    0.243000
      5          1           0        0.987000    1.307000   -0.971000
      6          6           0        2.779000    0.153000   -0.504000
      7          1           0        3.689000    0.384000    0.059000
      8          1           0        3.031000    0.222000   -1.566000
      9          6           0        2.231000   -1.240000   -0.112000
     10          1           0        2.866000   -1.707000    0.647000
     11          1           0        2.185000   -1.928000   -0.962000
     12          6           0        0.830000   -0.941000    0.469000
     13          1           0        0.542000   -1.609000    1.286000
     14          1           0        0.068000   -1.027000   -0.314000
     15         -1           0        1.189270   -1.965591   -0.877687
     16          8           0        2.095788   -3.262296   -2.610476
     17          1           0        1.317447   -3.659030   -3.001651
     18          1           0        2.824883   -3.602120   -3.129293
 ---------------------------------------------------------------------
                    Distance matrix (angstroms):
                    1          2          3          4          5
     1  N    0.000000
     2  H    1.022707   0.000000
     3  C    1.469441   2.030335   0.000000
     4  H    2.119343   2.319227   1.094974   0.000000
     5  H    2.081318   2.911173   1.095274   1.767502   0.000000
     6  C    2.423296   2.719525   1.545368   2.223508   2.181987
     7  H    2.974173   2.899126   2.182838   2.412664   3.035397
     8  H    3.321573   3.760759   2.202989   2.801975   2.389390
     9  C    2.423099   2.719597   2.437000   3.363771   2.961862
    10  H    2.973757   2.899248   3.177035   3.922192   3.902917
    11  H    3.321891   3.761582   3.214868   4.205577   3.449712
    12  C    1.468986   2.030296   2.295223   3.263345   2.674276
    13  H    2.118301   2.319021   3.262539   4.116801   3.714180
    14  H    2.081258   2.911605   2.674347   3.715138   2.593023
    15  X    3.037398   3.639670   3.215956   4.291604   3.280164
    16  O    5.279976   5.837448   5.068606   6.072359   4.979534
    17  H    5.706182   6.347881   5.597967   6.642704   5.375332
    18  H    6.067398   6.570806   5.730667   6.673288   5.668819
                    6          7          8          9         10
     6  C    0.000000
     7  H    1.094728   0.000000
     8  H    1.093668   1.760634   0.000000
     9  C    1.547390   2.189151   2.211687   0.000000
    10  H    2.189057   2.322790   2.940346   1.094255   0.000000
    11  H    2.212049   2.941054   2.388102   1.094514   1.761103
    12  C    2.437656   3.177673   3.215306   1.545886   2.182598
    13  H    3.363467   3.921886   4.204948   2.223350   2.412240
    14  H    2.962773   3.904061   3.450634   2.182829   3.035577
    15  X    2.674942   3.556207   2.941309   1.482552   2.281000
    16  O    4.070413   4.791649   3.755778   3.217195   3.690978
    17  H    4.786018   5.598030   4.478811   3.877676   4.418268
    18  H    4.582052   5.176975   4.136456   3.877676   4.225348
                   11         12         13         14         15
    11  H    0.000000
    12  C    2.204077   0.000000
    13  H    2.802626   1.093918   0.000000
    14  H    2.390271   1.095960   1.767314   0.000000
    15  X    1.000000   1.729863   2.286407   1.567145   0.000000
    16  O    2.122681   4.058793   4.508899   3.792397   2.346439
    17  H    2.812346   4.435168   4.815381   3.963858   2.719447
    18  H    2.812346   4.899881   5.355268   4.707178   3.228497
                   16         17         18
    16  O    0.000000
    17  H    0.957200   0.000000
    18  H    0.957200   1.513901   0.000000
 Stoichiometry    C4H11NO
 Framework group  C1[X(C4H11NO)]
 Deg. of freedom    45
 Full point group                 C1      NOp   1
 Largest Abelian subgroup         C1      NOp   1
 Largest concise Abelian subgroup C1      NOp   1
                         Standard orientation:                         
 ---------------------------------------------------------------------
 Center     Atomic      Atomic             Coordinates (Angstroms)
 Number     Number       Type             X           Y           Z
 ---------------------------------------------------------------------
      1          7           0       -1.901226   -0.709454   -0.192542
      2          1           0       -2.382694   -0.720127    0.709680
      3          6           0       -1.680223    0.694389   -0.566228
      4          1           0       -2.603394    1.272781   -0.455834
      5          1           0       -1.400935    0.715115   -1.625092
      6          6           0       -0.515029    1.214851    0.305323
      7          1           0       -0.901610    1.724692    1.193606
      8          1           0        0.110365    1.933422   -0.231936
      9          6           0        0.257118   -0.066269    0.701477
     10          1           0        0.257636   -0.198466    1.787718
     11          1           0        1.302711   -0.043559    0.378710
     12          6           0       -0.535436   -1.206145    0.021549
     13          1           0       -0.549215   -2.135673    0.598130
     14          1           0       -0.107426   -1.432111   -0.961750
     15          8           0        3.330517    0.000483   -0.247261
     16          1           0        3.762396   -0.578159   -0.875660
     17          1           0        4.018030    0.603438    0.035589
 ---------------------------------------------------------------------
 Rotational constants (GHZ):           5.7742654           1.4864539           1.3223002
 Standard basis: 6-31G(d) (6D, 7F)
 There are   112 symmetry adapted cartesian basis functions of A   symmetry.
 There are   112 symmetry adapted basis functions of A   symmetry.
   112 basis functions,   212 primitive gaussians,   112 cartesian basis functions
    25 alpha electrons       25 beta electrons
       nuclear repulsion energy       248.4780723586 Hartrees.
 NAtoms=   17 NActive=   17 NUniq=   17 SFac= 1.00D+00 NAtFMM=   60 NAOKFM=F Big=F
 Integral buffers will be    131072 words long.
 Raffenetti 1 integral format.
 Two-electron integral symmetry is turned on.
 One-electron integrals computed using PRISM.
 NBasis=   112 RedAO= T EigKep=  3.09D-03  NBF=   112
 NBsUse=   112 1.00D-06 EigRej= -1.00D+00 NBFU=   112
 Initial guess from the checkpoint file:  "PRLD-DON-H42.chk"
 B after Tr=    -0.000000    0.000000    0.000000
         Rot=    0.999997   -0.000276    0.002511    0.000151 Ang=  -0.29 deg.
 ExpMin= 1.61D-01 ExpMax= 5.48D+03 ExpMxC= 8.25D+02 IAcc=2 IRadAn=         4 AccDes= 0.00D+00
 Harris functional with IExCor=  205 and IRadAn=       4 diagonalized for initial guess.
 HarFok:  IExCor=  205 AccDes= 0.00D+00 IRadAn=         4 IDoV= 1 UseB2=F ITyADJ=14
 ICtDFT=  3500011 ScaDFX=  1.000000  1.000000  1.000000  1.000000
 FoFCou: FMM=F IPFlag=           0 FMFlag=      100000 FMFlg1=           0
         NFxFlg=           0 DoJE=T BraDBF=F KetDBF=T FulRan=T
         wScrn=  0.000000 ICntrl=       500 IOpCl=  0 I1Cent=   200000004 NGrid=           0
         NMat0=    1 NMatS0=      1 NMatT0=    0 NMatD0=    1 NMtDS0=    0 NMtDT0=    0
 Petite list used in FoFCou.
 Keep R1 ints in memory in canonical form, NReq=20923661.
 Requested convergence on RMS density matrix=1.00D-08 within 128 cycles.
 Requested convergence on MAX density matrix=1.00D-06.
 Requested convergence on             energy=1.00D-06.
 No special actions if energy rises.
 SCF Done:  E(RHF) =  -287.152337064     A.U. after    9 cycles
            NFock=  9  Conv=0.84D-08     -V/T= 2.0017
 Calling FoFJK, ICntrl=      2127 FMM=F ISym2X=0 I1Cent= 0 IOpClX= 0 NMat=1 NMatS=1 NMatT=0.
 ***** Axes restored to original set *****
 -------------------------------------------------------------------
 Center     Atomic                   Forces (Hartrees/Bohr)
 Number     Number              X              Y              Z
 -------------------------------------------------------------------
      1        7           0.013978151   -0.002906391    0.005319153
      2        1          -0.009262871   -0.000069660   -0.013092255
      3        6          -0.003708507    0.006325953    0.001931385
      4        1          -0.002698464   -0.006834431   -0.002890185
      5        1           0.004148172   -0.000447906    0.005210446
      6        6           0.004673666    0.002446040   -0.000568391
      7        1          -0.004823709   -0.000869864   -0.003607297
      8        1          -0.001614399   -0.000409081    0.006165597
      9        6           0.000658782   -0.008851647   -0.003460195
     10        1          -0.003105510    0.003096269   -0.003093883
     11        1           0.000582187    0.008469494    0.010856888
     12        6          -0.004686771   -0.000257936    0.002635960
     13        1           0.001714870    0.004264802   -0.005593567
     14        1           0.004542372    0.000009872    0.005302648
     15        8          -0.001003888   -0.013070813   -0.016380190
     16        1           0.007077770    0.004788756    0.005021135
     17        1          -0.006471849    0.004316543    0.006242752
 -------------------------------------------------------------------
 Cartesian Forces:  Max     0.016380190 RMS     0.006002068
 -----------------------------------------------------------------------------------------------
                       Internal Coordinate Forces (Hartree/Bohr or radian)
  Cent   Atom   N1       Length/X         N2         Alpha/Y        N3         Beta/Z          J
 -----------------------------------------------------------------------------------------------
      1  N            0.013978(     1)     -0.002906(    19)      0.005319(    37)
      2  H           -0.009263(     2)     -0.000070(    20)     -0.013092(    38)
      3  C           -0.003709(     3)      0.006326(    21)      0.001931(    39)
      4  H           -0.002698(     4)     -0.006834(    22)     -0.002890(    40)
      5  H            0.004148(     5)     -0.000448(    23)      0.005210(    41)
      6  C            0.004674(     6)      0.002446(    24)     -0.000568(    42)
      7  H           -0.004824(     7)     -0.000870(    25)     -0.003607(    43)
      8  H           -0.001614(     8)     -0.000409(    26)      0.006166(    44)
      9  C            0.000848(     9)     -0.009072(    27)     -0.003292(    45)
     10  H           -0.003106(    10)      0.003096(    28)     -0.003094(    46)
     11  H           -0.000005(    11)      0.004718(    29)      0.005578(    47)
     12  C           -0.004688(    12)     -0.000251(    30)      0.002631(    48)
     13  H            0.001715(    13)      0.004265(    31)     -0.005594(    49)
     14  H            0.004542(    14)      0.000010(    32)      0.005303(    50)
         X       11  -0.000000(    15)      9  -0.000344(    33)     12   0.000023(    51)     0
     15  O       11   0.006483(    16)     15  -0.000344(    34)      9   0.000578(    52)     0
     16  H       16  -0.009792(    17)     11  -0.002776(    35)     15   0.000005(    53)     0
     17  H       16  -0.009846(    18)     11  -0.002889(    36)     15   0.000018(    54)     0
 -----------------------------------------------------------------------------------------------
 Internal  Forces:  Max     0.013978151 RMS     0.004939167

 GradGradGradGradGradGradGradGradGradGradGradGradGradGradGradGradGradGrad
 Berny optimization.
 Search for a local minimum.
 Step number   2 out of a maximum of  100
 All quantities printed in internal units (Hartrees-Bohrs-Radians)
 Update second derivatives using D2CorN and points    1    2
 DE= -1.94D-03 DEPred=-1.29D-03 R= 1.50D+00
 TightC=F SS=  1.41D+00  RLast= 2.32D-01 DXNew= 5.0454D-01 6.9624D-01
 Trust test= 1.50D+00 RLast= 2.32D-01 DXMaxT set to 5.05D-01
 The second derivative matrix:
                          rAH       dih
           rAH          0.01760
           dih         -0.00058   0.00000
 ITU=  1  0
     Eigenvalues ---   -0.00002   0.01762
 RFO step:  Lambda=-1.01217108D-04 EMin=-1.83547313D-05
 Quartic linear search produced a step of  2.00000.
 Maximum step size (   0.505) exceeded in Quadratic search.
    -- Step size scaled by   0.456
 Variable       Old X    -DE/DX   Delta X   Delta X   Delta X     New X
                                 (Linear)    (Quad)   (Total)
   rAH        4.01129   0.00648   0.46367   0.01639   0.48006   4.49135
   dih        0.01069   0.00002   0.02137   0.50427   0.52564   0.53633
         Item               Value     Threshold  Converged?
 Maximum Force            0.006483     0.000450     NO 
 RMS     Force            0.004584     0.000300     NO 
 Maximum Displacement     0.525643     0.001800     NO 
 RMS     Displacement     0.503367     0.001200     NO 
 Predicted change in Energy=-1.241646D-03
 GradGradGradGradGradGradGradGradGradGradGradGradGradGradGradGradGradGrad

 ---------------------------------------------------------------------------------------------------
                            Z-MATRIX (ANGSTROMS AND DEGREES)
   CD    Cent   Atom    N1       Length/X        N2       Alpha/Y        N3        Beta/Z          J
 ---------------------------------------------------------------------------------------------------
      1      1  N        0   0.844000          0.456000          0.923000
      2      2  H        0   1.372000          0.495000          1.798000
      3      3  C        0   1.643000          1.125000         -0.113000
      4      4  H        0   2.000000          2.097000          0.243000
      5      5  H        0   0.987000          1.307000         -0.971000
      6      6  C        0   2.779000          0.153000         -0.504000
      7      7  H        0   3.689000          0.384000          0.059000
      8      8  H        0   3.031000          0.222000         -1.566000
      9      9  C        0   2.231000         -1.240000         -0.112000
     10     10  H        0   2.866000         -1.707000          0.647000
     11     11  H        0   2.185000         -1.928000         -0.962000
     12     12  C        0   0.830000         -0.941000          0.469000
     13     13  H        0   0.542000         -1.609000          1.286000
     14     14  H        0   0.068000         -1.027000         -0.314000
     15         X       11   1.000000(    14)      9   90.000(    30)     12   30.729(    45)      0
     16     15  O       11   2.376718(    15)     15   90.000(    31)      9  180.000(    46)      0
     17     16  H       16   0.957200(    16)     11  127.740(    32)     15    0.000(    47)      0
     18     17  H       16   0.957200(    17)     11  127.740(    33)     15  180.000(    48)      0
 ---------------------------------------------------------------------------------------------------
                         Z-Matrix orientation:                         
 ---------------------------------------------------------------------
 Center     Atomic      Atomic             Coordinates (Angstroms)
 Number     Number       Type             X           Y           Z
 ---------------------------------------------------------------------
      1          7           0        0.844000    0.456000    0.923000
      2          1           0        1.372000    0.495000    1.798000
      3          6           0        1.643000    1.125000   -0.113000
      4          1           0        2.000000    2.097000    0.243000
      5          1           0        0.987000    1.307000   -0.971000
      6          6           0        2.779000    0.153000   -0.504000
      7          1           0        3.689000    0.384000    0.059000
      8          1           0        3.031000    0.222000   -1.566000
      9          6           0        2.231000   -1.240000   -0.112000
     10          1           0        2.866000   -1.707000    0.647000
     11          1           0        2.185000   -1.928000   -0.962000
     12          6           0        0.830000   -0.941000    0.469000
     13          1           0        0.542000   -1.609000    1.286000
     14          1           0        0.068000   -1.027000   -0.314000
     15         -1           0        1.282451   -1.570728   -1.202336
     16          8           0        2.085112   -3.421980   -2.807761
     17          1           0        1.377303   -3.519823   -3.444680
     18          1           0        2.743673   -4.060697   -3.080835
 ---------------------------------------------------------------------
                    Distance matrix (angstroms):
                    1          2          3          4          5
     1  N    0.000000
     2  H    1.022707   0.000000
     3  C    1.469441   2.030335   0.000000
     4  H    2.119343   2.319227   1.094974   0.000000
     5  H    2.081318   2.911173   1.095274   1.767502   0.000000
     6  C    2.423296   2.719525   1.545368   2.223508   2.181987
     7  H    2.974173   2.899126   2.182838   2.412664   3.035397
     8  H    3.321573   3.760759   2.202989   2.801975   2.389390
     9  C    2.423099   2.719597   2.437000   3.363771   2.961862
    10  H    2.973757   2.899248   3.177035   3.922192   3.902917
    11  H    3.321891   3.761582   3.214868   4.205577   3.449712
    12  C    1.468986   2.030296   2.295223   3.263345   2.674276
    13  H    2.118301   2.319021   3.262539   4.116801   3.714180
    14  H    2.081258   2.911605   2.674347   3.715138   2.593023
    15  X    2.969330   3.643799   2.929778   4.007007   2.902090
    16  O    5.522469   6.088045   5.303982   6.306625   5.190645
    17  H    5.930279   6.603372   5.722330   6.747994   5.437798
    18  H    6.327717   6.814608   6.075440   7.036914   6.029052
                    6          7          8          9         10
     6  C    0.000000
     7  H    1.094728   0.000000
     8  H    1.093668   1.760634   0.000000
     9  C    1.547390   2.189151   2.211687   0.000000
    10  H    2.189057   2.322790   2.940346   1.094255   0.000000
    11  H    2.212049   2.941054   2.388102   1.094514   1.761103
    12  C    2.437656   3.177673   3.215306   1.545886   2.182598
    13  H    3.363467   3.921886   4.204948   2.223350   2.412240
    14  H    2.962773   3.904061   3.450634   2.182829   3.035577
    15  X    2.387168   3.347150   2.530524   1.482552   2.438492
    16  O    4.309208   5.027550   3.964248   3.471231   3.935265
    17  H    4.909376   5.732324   4.501709   4.127123   4.716395
    18  H    4.939288   5.523362   4.551788   4.127123   4.410397
                   11         12         13         14         15
    11  H    0.000000
    12  C    2.204077   0.000000
    13  H    2.802626   1.093918   0.000000
    14  H    2.390271   1.095960   1.767314   0.000000
    15  X    1.000000   1.842453   2.596449   1.599897   0.000000
    16  O    2.376718   4.297409   4.735712   4.002938   2.578524
    17  H    3.057772   4.718766   5.169942   4.210653   2.972553
    18  H    3.057772   5.098625   5.470597   4.900808   3.444397
                   16         17         18
    16  O    0.000000
    17  H    0.957200   0.000000
    18  H    0.957200   1.513901   0.000000
 Stoichiometry    C4H11NO
 Framework group  C1[X(C4H11NO)]
 Deg. of freedom    45
 Full point group                 C1      NOp   1
 Largest Abelian subgroup         C1      NOp   1
 Largest concise Abelian subgroup C1      NOp   1
                         Standard orientation:                         
 ---------------------------------------------------------------------
 Center     Atomic      Atomic             Coordinates (Angstroms)
 Number     Number       Type             X           Y           Z
 ---------------------------------------------------------------------
      1          7           0       -1.947007   -0.706783   -0.218051
      2          1           0       -2.444501   -0.724199    0.675328
      3          6           0       -1.717946    0.699781   -0.576336
      4          1           0       -2.642351    1.278332   -0.477728
      5          1           0       -1.419794    0.728752   -1.629849
      6          6           0       -0.567955    1.211818    0.320045
      7          1           0       -0.969800    1.714901    1.205402
      8          1           0        0.067653    1.933987   -0.200131
      9          6           0        0.195700   -0.073362    0.719495
     10          1           0        0.176709   -0.214347    1.804464
     11          1           0        1.246907   -0.049255    0.415615
     12          6           0       -0.585758   -1.206776    0.016319
     13          1           0       -0.610764   -2.140924    0.585002
     14          1           0       -0.140507   -1.425273   -0.960993
     15          8           0        3.529584    0.003094   -0.244257
     16          1           0        3.901371   -0.252015   -1.088606
     17          1           0        4.283199    0.284011    0.274764
 ---------------------------------------------------------------------
 Rotational constants (GHZ):           5.7290474           1.3585862           1.2254760
 Standard basis: 6-31G(d) (6D, 7F)
 There are   112 symmetry adapted cartesian basis functions of A   symmetry.
 There are   112 symmetry adapted basis functions of A   symmetry.
   112 basis functions,   212 primitive gaussians,   112 cartesian basis functions
    25 alpha electrons       25 beta electrons
       nuclear repulsion energy       245.7276029156 Hartrees.
 NAtoms=   17 NActive=   17 NUniq=   17 SFac= 1.00D+00 NAtFMM=   60 NAOKFM=F Big=F
 Integral buffers will be    131072 words long.
 Raffenetti 1 integral format.
 Two-electron integral symmetry is turned on.
 One-electron integrals computed using PRISM.
 NBasis=   112 RedAO= T EigKep=  3.12D-03  NBF=   112
 NBsUse=   112 1.00D-06 EigRej= -1.00D+00 NBFU=   112
 Initial guess from the checkpoint file:  "PRLD-DON-H42.chk"
 B after Tr=    -0.000000   -0.000000    0.000000
         Rot=    0.999950   -0.008976    0.004322    0.000505 Ang=  -1.14 deg.
 ExpMin= 1.61D-01 ExpMax= 5.48D+03 ExpMxC= 8.25D+02 IAcc=2 IRadAn=         4 AccDes= 0.00D+00
 Harris functional with IExCor=  205 and IRadAn=       4 diagonalized for initial guess.
 HarFok:  IExCor=  205 AccDes= 0.00D+00 IRadAn=         4 IDoV= 1 UseB2=F ITyADJ=14
 ICtDFT=  3500011 ScaDFX=  1.000000  1.000000  1.000000  1.000000
 FoFCou: FMM=F IPFlag=           0 FMFlag=      100000 FMFlg1=           0
         NFxFlg=           0 DoJE=T BraDBF=F KetDBF=T FulRan=T
         wScrn=  0.000000 ICntrl=       500 IOpCl=  0 I1Cent=   200000004 NGrid=           0
         NMat0=    1 NMatS0=      1 NMatT0=    0 NMatD0=    1 NMtDS0=    0 NMtDT0=    0
 Petite list used in FoFCou.
 Keep R1 ints in memory in canonical form, NReq=20922989.
 Requested convergence on RMS density matrix=1.00D-08 within 128 cycles.
 Requested convergence on MAX density matrix=1.00D-06.
 Requested convergence on             energy=1.00D-06.
 No special actions if energy rises.
 SCF Done:  E(RHF) =  -287.154265431     A.U. after   12 cycles
            NFock= 12  Conv=0.49D-08     -V/T= 2.0017
 Calling FoFJK, ICntrl=      2127 FMM=F ISym2X=0 I1Cent= 0 IOpClX= 0 NMat=1 NMatS=1 NMatT=0.
 ***** Axes restored to original set *****
 -------------------------------------------------------------------
 Center     Atomic                   Forces (Hartrees/Bohr)
 Number     Number              X              Y              Z
 -------------------------------------------------------------------
      1        7           0.014400906   -0.003249860    0.005234347
      2        1          -0.009323105   -0.000002632   -0.013044141
      3        6          -0.003808198    0.006335326    0.001937306
      4        1          -0.002663652   -0.006899298   -0.002927027
      5        1           0.004157791   -0.000443676    0.005224907
      6        6           0.004811714    0.002564900   -0.001033340
      7        1          -0.004906888   -0.001023527   -0.003615215
      8        1          -0.001545756   -0.000459502    0.006325819
      9        6           0.000745771   -0.008441044   -0.003037025
     10        1          -0.003184824    0.002907720   -0.003571141
     11        1           0.000401925    0.006221343    0.008092270
     12        6          -0.005370654   -0.000384827    0.002512431
     13        1           0.001789573    0.004271092   -0.005710276
     14        1           0.004677210   -0.000069583    0.005414925
     15        8          -0.000801571   -0.010678046   -0.013423689
     16        1           0.006646171    0.002129988    0.007469555
     17        1          -0.006026414    0.007221628    0.004150295
 -------------------------------------------------------------------
 Cartesian Forces:  Max     0.014400906 RMS     0.005675564
 -----------------------------------------------------------------------------------------------
                       Internal Coordinate Forces (Hartree/Bohr or radian)
  Cent   Atom   N1       Length/X         N2         Alpha/Y        N3         Beta/Z          J
 -----------------------------------------------------------------------------------------------
      1  N            0.014401(     1)     -0.003250(    19)      0.005234(    37)
      2  H           -0.009323(     2)     -0.000003(    20)     -0.013044(    38)
      3  C           -0.003808(     3)      0.006335(    21)      0.001937(    39)
      4  H           -0.002664(     4)     -0.006899(    22)     -0.002927(    40)
      5  H            0.004158(     5)     -0.000444(    23)      0.005225(    41)
      6  C            0.004812(     6)      0.002565(    24)     -0.001033(    42)
      7  H           -0.004907(     7)     -0.001024(    25)     -0.003615(    43)
      8  H           -0.001546(     8)     -0.000460(    26)      0.006326(    44)
      9  C            0.000882(     9)     -0.008569(    27)     -0.002940(    45)
     10  H           -0.003185(    10)      0.002908(    28)     -0.003571(    46)
     11  H            0.000083(    11)      0.005031(    29)      0.006185(    47)
     12  C           -0.005370(    12)     -0.000393(    30)      0.002519(    48)
     13  H            0.001790(    13)      0.004271(    31)     -0.005710(    49)
     14  H            0.004677(    14)     -0.000070(    32)      0.005415(    50)
         X       11   0.000000(    15)      9  -0.000415(    33)     12  -0.000028(    51)     0
     15  O       11   0.002242(    16)     15  -0.000415(    34)      9   0.000207(    52)     0
     16  H       16  -0.010103(    17)     11  -0.002826(    35)     15  -0.000043(    53)     0
     17  H       16  -0.010149(    18)     11  -0.002967(    36)     15   0.000015(    54)     0
 -----------------------------------------------------------------------------------------------
 Internal  Forces:  Max     0.014400906 RMS     0.004955577

 GradGradGradGradGradGradGradGradGradGradGradGradGradGradGradGradGradGrad
 Berny optimization.
 Search for a local minimum.
 Step number   3 out of a maximum of  100
 All quantities printed in internal units (Hartrees-Bohrs-Radians)
 Update second derivatives using D2CorN and points    3
 DE= -1.93D-03 DEPred=-1.24D-03 R= 1.55D+00
 TightC=F SS=  1.41D+00  RLast= 7.12D-01 DXNew= 8.4853D-01 2.1356D+00
 Trust test= 1.55D+00 RLast= 7.12D-01 DXMaxT set to 8.49D-01
 The second derivative matrix:
                          rAH       dih
           rAH          0.01760
           dih         -0.00058   0.00000
 ITU=  1  1  0
 Linear search step of   1.424 exceeds DXMaxT=   0.849 but not scaled.
 Quartic linear search produced a step of  2.00000.
 Variable       Old X    -DE/DX   Delta X   Delta X   Delta X     New X
                                 (Linear)    (Quad)   (Total)
   rAH        4.49135   0.00224   0.96012   0.00000   0.96012   5.45146
   dih        0.53633  -0.00003   1.05129   0.00000   1.05129   1.58761
         Item               Value     Threshold  Converged?
 Maximum Force            0.002242     0.000450     NO 
 RMS     Force            0.001586     0.000300     NO 
 Maximum Displacement     1.051286     0.001800     NO 
 RMS     Displacement     1.006734     0.001200     NO 
 Predicted change in Energy=-5.406338D-03
 GradGradGradGradGradGradGradGradGradGradGradGradGradGradGradGradGradGrad

 ---------------------------------------------------------------------------------------------------
                            Z-MATRIX (ANGSTROMS AND DEGREES)
   CD    Cent   Atom    N1       Length/X        N2       Alpha/Y        N3        Beta/Z          J
 ---------------------------------------------------------------------------------------------------
      1      1  N        0   0.844000          0.456000          0.923000
      2      2  H        0   1.372000          0.495000          1.798000
      3      3  C        0   1.643000          1.125000         -0.113000
      4      4  H        0   2.000000          2.097000          0.243000
      5      5  H        0   0.987000          1.307000         -0.971000
      6      6  C        0   2.779000          0.153000         -0.504000
      7      7  H        0   3.689000          0.384000          0.059000
      8      8  H        0   3.031000          0.222000         -1.566000
      9      9  C        0   2.231000         -1.240000         -0.112000
     10     10  H        0   2.866000         -1.707000          0.647000
     11     11  H        0   2.185000         -1.928000         -0.962000
     12     12  C        0   0.830000         -0.941000          0.469000
     13     13  H        0   0.542000         -1.609000          1.286000
     14     14  H        0   0.068000         -1.027000         -0.314000
     15         X       11   1.000000(    14)      9   90.000(    30)     12   90.964(    45)      0
     16     15  O       11   2.884790(    15)     15   90.000(    31)      9  180.000(    46)      0
     17     16  H       16   0.957200(    16)     11  127.740(    32)     15    0.000(    47)      0
     18     17  H       16   0.957200(    17)     11  127.740(    33)     15  180.000(    48)      0
 ---------------------------------------------------------------------------------------------------
                         Z-Matrix orientation:                         
 ---------------------------------------------------------------------
 Center     Atomic      Atomic             Coordinates (Angstroms)
 Number     Number       Type             X           Y           Z
 ---------------------------------------------------------------------
      1          7           0        0.844000    0.456000    0.923000
      2          1           0        1.372000    0.495000    1.798000
      3          6           0        1.643000    1.125000   -0.113000
      4          1           0        2.000000    2.097000    0.243000
      5          1           0        0.987000    1.307000   -0.971000
      6          6           0        2.779000    0.153000   -0.504000
      7          1           0        3.689000    0.384000    0.059000
      8          1           0        3.031000    0.222000   -1.566000
      9          6           0        2.231000   -1.240000   -0.112000
     10          1           0        2.866000   -1.707000    0.647000
     11          1           0        2.185000   -1.928000   -0.962000
     12          6           0        0.830000   -0.941000    0.469000
     13          1           0        0.542000   -1.609000    1.286000
     14          1           0        0.068000   -1.027000   -0.314000
     15         -1           0        2.108915   -1.150956   -1.586831
     16          8           0        2.063759   -3.741349   -3.202330
     17          1           0        1.981543   -3.521445   -4.130293
     18          1           0        2.096727   -4.697813   -3.184361
 ---------------------------------------------------------------------
                    Distance matrix (angstroms):
                    1          2          3          4          5
     1  N    0.000000
     2  H    1.022707   0.000000
     3  C    1.469441   2.030335   0.000000
     4  H    2.119343   2.319227   1.094974   0.000000
     5  H    2.081318   2.911173   1.095274   1.767502   0.000000
     6  C    2.423296   2.719525   1.545368   2.223508   2.181987
     7  H    2.974173   2.899126   2.182838   2.412664   3.035397
     8  H    3.321573   3.760759   2.202989   2.801975   2.389390
     9  C    2.423099   2.719597   2.437000   3.363771   2.961862
    10  H    2.973757   2.899248   3.177035   3.922192   3.902917
    11  H    3.321891   3.761582   3.214868   4.205577   3.449712
    12  C    1.468986   2.030296   2.295223   3.263345   2.674276
    13  H    2.118301   2.319021   3.262539   4.116801   3.714180
    14  H    2.081258   2.911605   2.674347   3.715138   2.593023
    15  X    3.237525   3.835270   2.751223   3.729526   2.771189
    16  O    6.010316   6.590029   5.779477   6.779431   5.623529
    17  H    6.530685   7.186656   6.151642   7.119899   5.855265
    18  H    6.708317   7.232873   6.598808   7.610889   6.495247
                    6          7          8          9         10
     6  C    0.000000
     7  H    1.094728   0.000000
     8  H    1.093668   1.760634   0.000000
     9  C    1.547390   2.189151   2.211687   0.000000
    10  H    2.189057   2.322790   2.940346   1.094255   0.000000
    11  H    2.212049   2.941054   2.388102   1.094514   1.761103
    12  C    2.437656   3.177673   3.215306   1.545886   2.182598
    13  H    3.363467   3.921886   4.204948   2.223350   2.412240
    14  H    2.962773   3.904061   3.450634   2.182829   3.035577
    15  X    1.822591   2.749821   1.653990   1.482552   2.423296
    16  O    4.791504   5.504198   4.395597   3.979304   4.427133
    17  H    5.223742   5.976461   4.657289   4.627515   5.186232
    18  H    5.583924   6.235346   5.262748   4.627515   4.920982
                   11         12         13         14         15
    11  H    0.000000
    12  C    2.204077   0.000000
    13  H    2.802626   1.093918   0.000000
    14  H    2.390271   1.095960   1.767314   0.000000
    15  X    1.000000   2.430257   3.304268   2.408485   0.000000
    16  O    2.884790   4.779412   5.196900   4.437702   3.053197
    17  H    3.552259   5.397985   5.921652   4.944491   3.479172
    18  H    3.552259   5.391223   5.651731   5.082280   3.890044
                   16         17         18
    16  O    0.000000
    17  H    0.957200   0.000000
    18  H    0.957200   1.513901   0.000000
 Stoichiometry    C4H11NO
 Framework group  C1[X(C4H11NO)]
 Deg. of freedom    45
 Full point group                 C1      NOp   1
 Largest Abelian subgroup         C1      NOp   1
 Largest concise Abelian subgroup C1      NOp   1
                         Standard orientation:                         
 ---------------------------------------------------------------------
 Center     Atomic      Atomic             Coordinates (Angstroms)
 Number     Number       Type             X           Y           Z
 ---------------------------------------------------------------------
      1          7           0       -2.038247   -0.695308   -0.285022
      2          1           0       -2.564441   -0.748391    0.590325
      3          6           0       -1.795975    0.724281   -0.577133
      4          1           0       -2.722378    1.300629   -0.484563
      5          1           0       -1.463818    0.796045   -1.618356
      6          6           0       -0.674995    1.195842    0.376384
      7          1           0       -1.104692    1.662897    1.268377
      8          1           0       -0.021985    1.937278   -0.092613
      9          6           0        0.073742   -0.106720    0.746713
     10          1           0        0.019442   -0.292420    1.823728
     11          1           0        1.134269   -0.072761    0.478220
     12          6           0       -0.685919   -1.208063   -0.027704
     13          1           0       -0.730480   -2.164870    0.500683
     14          1           0       -0.209512   -1.387084   -0.998331
     15          8           0        3.929482    0.016744   -0.229443
     16          1           0        4.343529    0.539332   -0.916247
     17          1           0        4.650816   -0.469488    0.169917
 ---------------------------------------------------------------------
 Rotational constants (GHZ):           5.6451172           1.1482785           1.0531916
 Standard basis: 6-31G(d) (6D, 7F)
 There are   112 symmetry adapted cartesian basis functions of A   symmetry.
 There are   112 symmetry adapted basis functions of A   symmetry.
   112 basis functions,   212 primitive gaussians,   112 cartesian basis functions
    25 alpha electrons       25 beta electrons
       nuclear repulsion energy       241.0713911913 Hartrees.
 NAtoms=   17 NActive=   17 NUniq=   17 SFac= 1.00D+00 NAtFMM=   60 NAOKFM=F Big=F
 Integral buffers will be    131072 words long.
 Raffenetti 1 integral format.
 Two-electron integral symmetry is turned on.
 One-electron integrals computed using PRISM.
 NBasis=   112 RedAO= T EigKep=  3.14D-03  NBF=   112
 NBsUse=   112 1.00D-06 EigRej= -1.00D+00 NBFU=   112
 Initial guess from the checkpoint file:  "PRLD-DON-H42.chk"
 B after Tr=     0.000000   -0.000000   -0.000000
         Rot=    0.999539   -0.029245    0.008085    0.000568 Ang=  -3.48 deg.
 ExpMin= 1.61D-01 ExpMax= 5.48D+03 ExpMxC= 8.25D+02 IAcc=2 IRadAn=         4 AccDes= 0.00D+00
 Harris functional with IExCor=  205 and IRadAn=       4 diagonalized for initial guess.
 HarFok:  IExCor=  205 AccDes= 0.00D+00 IRadAn=         4 IDoV= 1 UseB2=F ITyADJ=14
 ICtDFT=  3500011 ScaDFX=  1.000000  1.000000  1.000000  1.000000
 FoFCou: FMM=F IPFlag=           0 FMFlag=      100000 FMFlg1=           0
         NFxFlg=           0 DoJE=T BraDBF=F KetDBF=T FulRan=T
         wScrn=  0.000000 ICntrl=       500 IOpCl=  0 I1Cent=   200000004 NGrid=           0
         NMat0=    1 NMatS0=      1 NMatT0=    0 NMatD0=    1 NMtDS0=    0 NMtDT0=    0
 Petite list used in FoFCou.
 Keep R1 ints in memory in canonical form, NReq=20921761.
 Requested convergence on RMS density matrix=1.00D-08 within 128 cycles.
 Requested convergence on MAX density matrix=1.00D-06.
 Requested convergence on             energy=1.00D-06.
 No special actions if energy rises.
 SCF Done:  E(RHF) =  -287.154975322     A.U. after   13 cycles
            NFock= 13  Conv=0.44D-08     -V/T= 2.0018
 Calling FoFJK, ICntrl=      2127 FMM=F ISym2X=0 I1Cent= 0 IOpClX= 0 NMat=1 NMatS=1 NMatT=0.
 ***** Axes restored to original set *****
 -------------------------------------------------------------------
 Center     Atomic                   Forces (Hartrees/Bohr)
 Number     Number              X              Y              Z
 -------------------------------------------------------------------
      1        7           0.014980939   -0.003679078    0.005145373
      2        1          -0.009398655    0.000078487   -0.012981857
      3        6          -0.004064565    0.006419803    0.001820045
      4        1          -0.002602655   -0.006997523   -0.002952019
      5        1           0.004196284   -0.000470315    0.005274046
      6        6           0.004943858    0.002650993   -0.001354550
      7        1          -0.004994149   -0.001228443   -0.003678557
      8        1          -0.001473150   -0.000360374    0.006412203
      9        6           0.000909046   -0.007670186   -0.001851948
     10        1          -0.003228152    0.002694680   -0.004161729
     11        1           0.000288223    0.004765355    0.006315882
     12        6          -0.006284690   -0.000441628    0.002224556
     13        1           0.001900512    0.004278871   -0.005748136
     14        1           0.004859094   -0.000118012    0.005508864
     15        8          -0.000629823   -0.009410701   -0.011738071
     16        1           0.000842610   -0.000890470    0.010379367
     17        1          -0.000244727    0.010378541    0.001386532
 -------------------------------------------------------------------
 Cartesian Forces:  Max     0.014980939 RMS     0.005546905
 -----------------------------------------------------------------------------------------------
                       Internal Coordinate Forces (Hartree/Bohr or radian)
  Cent   Atom   N1       Length/X         N2         Alpha/Y        N3         Beta/Z          J
 -----------------------------------------------------------------------------------------------
      1  N            0.014981(     1)     -0.003679(    19)      0.005145(    37)
      2  H           -0.009399(     2)      0.000078(    20)     -0.012982(    38)
      3  C           -0.004065(     3)      0.006420(    21)      0.001820(    39)
      4  H           -0.002603(     4)     -0.006998(    22)     -0.002952(    40)
      5  H            0.004196(     5)     -0.000470(    23)      0.005274(    41)
      6  C            0.004944(     6)      0.002651(    24)     -0.001355(    42)
      7  H           -0.004994(     7)     -0.001228(    25)     -0.003679(    43)
      8  H           -0.001473(     8)     -0.000360(    26)      0.006412(    44)
      9  C            0.001017(     9)     -0.007713(    27)     -0.001823(    45)
     10  H           -0.003228(    10)      0.002695(    28)     -0.004162(    46)
     11  H            0.000147(    11)      0.004890(    29)      0.006311(    47)
     12  C           -0.006284(    12)     -0.000446(    30)      0.002228(    48)
     13  H            0.001901(    13)      0.004279(    31)     -0.005748(    49)
     14  H            0.004859(    14)     -0.000118(    32)      0.005509(    50)
         X       11   0.000000(    15)      9  -0.000142(    33)     12  -0.000015(    51)     0
     15  O       11  -0.000069(    16)     15  -0.000142(    34)      9  -0.000216(    52)     0
     16  H       16  -0.010339(    17)     11  -0.002763(    35)     15  -0.000036(    53)     0
     17  H       16  -0.010353(    18)     11  -0.002867(    36)     15   0.000021(    54)     0
 -----------------------------------------------------------------------------------------------
 Internal  Forces:  Max     0.014980939 RMS     0.005009992

 GradGradGradGradGradGradGradGradGradGradGradGradGradGradGradGradGradGrad
 Berny optimization.
 Search for a local minimum.
 Step number   4 out of a maximum of  100
 All quantities printed in internal units (Hartrees-Bohrs-Radians)
 Update second derivatives using D2CorN and points    4
 The second derivative matrix:
                          rAH       dih
           rAH          0.01760
           dih         -0.00058   0.00000
 ITU=  0  1  1
     Eigenvalues ---   -0.00002   0.01762
 RFO step:  Lambda=-1.06641131D-04 EMin=-1.83547313D-05
 Quartic linear search produced a step of -0.11052.
 Maximum step size (   0.849) exceeded in Quadratic search.
    -- Step size scaled by   0.775
 Variable       Old X    -DE/DX   Delta X   Delta X   Delta X     New X
                                 (Linear)    (Quad)   (Total)
   rAH        5.45146  -0.00007  -0.10611  -0.02294  -0.12905   5.32242
   dih        1.58761  -0.00001  -0.11618  -0.84822  -0.96440   0.62321
         Item               Value     Threshold  Converged?
 Maximum Force            0.000069     0.000450     YES
 RMS     Force            0.000050     0.000300     YES
 Maximum Displacement     0.964403     0.001800     NO 
 RMS     Displacement     0.688014     0.001200     NO 
 Predicted change in Energy=-5.145433D-05
 GradGradGradGradGradGradGradGradGradGradGradGradGradGradGradGradGradGrad

 ---------------------------------------------------------------------------------------------------
                            Z-MATRIX (ANGSTROMS AND DEGREES)
   CD    Cent   Atom    N1       Length/X        N2       Alpha/Y        N3        Beta/Z          J
 ---------------------------------------------------------------------------------------------------
      1      1  N        0   0.844000          0.456000          0.923000
      2      2  H        0   1.372000          0.495000          1.798000
      3      3  C        0   1.643000          1.125000         -0.113000
      4      4  H        0   2.000000          2.097000          0.243000
      5      5  H        0   0.987000          1.307000         -0.971000
      6      6  C        0   2.779000          0.153000         -0.504000
      7      7  H        0   3.689000          0.384000          0.059000
      8      8  H        0   3.031000          0.222000         -1.566000
      9      9  C        0   2.231000         -1.240000         -0.112000
     10     10  H        0   2.866000         -1.707000          0.647000
     11     11  H        0   2.185000         -1.928000         -0.962000
     12     12  C        0   0.830000         -0.941000          0.469000
     13     13  H        0   0.542000         -1.609000          1.286000
     14     14  H        0   0.068000         -1.027000         -0.314000
     15         X       11   1.000000(    14)      9   90.000(    30)     12   35.707(    45)      0
     16     15  O       11   2.816501(    15)     15   90.000(    31)      9  180.000(    46)      0
     17     16  H       16   0.957200(    16)     11  127.740(    32)     15    0.000(    47)      0
     18     17  H       16   0.957200(    17)     11  127.740(    33)     15  180.000(    48)      0
 ---------------------------------------------------------------------------------------------------
                         Z-Matrix orientation:                         
 ---------------------------------------------------------------------
 Center     Atomic      Atomic             Coordinates (Angstroms)
 Number     Number       Type             X           Y           Z
 ---------------------------------------------------------------------
      1          7           0        0.844000    0.456000    0.923000
      2          1           0        1.372000    0.495000    1.798000
      3          6           0        1.643000    1.125000   -0.113000
      4          1           0        2.000000    2.097000    0.243000
      5          1           0        0.987000    1.307000   -0.971000
      6          6           0        2.779000    0.153000   -0.504000
      7          1           0        3.689000    0.384000    0.059000
      8          1           0        3.031000    0.222000   -1.566000
      9          6           0        2.231000   -1.240000   -0.112000
     10          1           0        2.866000   -1.707000    0.647000
     11          1           0        2.185000   -1.928000   -0.962000
     12          6           0        0.830000   -0.941000    0.469000
[...]
 Search for a local minimum.
 Step number 100 out of a maximum of  100
 All quantities printed in internal units (Hartrees-Bohrs-Radians)
 Update second derivatives using D2CorN and points   28
 The second derivative matrix:
                          rAH       dih
           rAH          0.01690
           dih          0.00070  -0.00008
 ITU=  0  0  0
     Eigenvalues ---   -0.00011   0.01693
 RFO step:  Lambda=-1.10893507D-04 EMin=-1.10890527D-04
 I=     1 Eig=   -1.11D-04 Dot1= -5.84D-10
 I=     1 Stepn=  2.23D-01 RXN=   2.23D-01 EDone=F
 Mixed    1 eigenvectors in step.  Raw Step.Grad= -5.84D-10.
 RFO eigenvector is Hessian eigenvector with negative curvature.
 Taking step of  2.23D-01 in eigenvector direction(s).  Step.Grad= -1.11D-05.
 Skip linear search -- no minimum in search direction.
 Maximum step size (   0.089) exceeded in Quadratic search.
    -- Step size scaled by   0.400
 Variable       Old X    -DE/DX   Delta X   Delta X   Delta X     New X
                                 (Linear)    (Quad)   (Total)
   rAH        5.33425   0.00005   0.00000  -0.00369  -0.00369   5.33056
   dih        0.20027   0.00000   0.00000   0.08911   0.08911   0.28938
         Item               Value     Threshold  Converged?
 Maximum Force            0.000050     0.000450     YES
 RMS     Force            0.000035     0.000300     YES
 Maximum Displacement     0.089114     0.001800     NO 
 RMS     Displacement     0.063067     0.001200     NO 
 Predicted change in Energy=-4.408309D-07
 Optimization stopped.
    -- Number of steps exceeded,  NStep= 100
    -- Flag reset to prevent archiving.
                       ----------------------------
                       ! Non-Optimized Parameters !
                       ! (Angstroms and Degrees)  !
 ----------------------                            ----------------------
 !      Name          Value   Derivative information (Atomic Units)     !
 ------------------------------------------------------------------------
 !       rAH         2.8208   -DE/DX =    0.0                           !
 !       dih        16.5803   -DE/DX =    0.0                           !
 ------------------------------------------------------------------------
 GradGradGradGradGradGradGradGradGradGradGradGradGradGradGradGradGradGrad

 ---------------------------------------------------------------------------------------------------
                            Z-MATRIX (ANGSTROMS AND DEGREES)
   CD    Cent   Atom    N1       Length/X        N2       Alpha/Y        N3        Beta/Z          J
 ---------------------------------------------------------------------------------------------------
      1      1  N        0   0.844000          0.456000          0.923000
      2      2  H        0   1.372000          0.495000          1.798000
      3      3  C        0   1.643000          1.125000         -0.113000
      4      4  H        0   2.000000          2.097000          0.243000
      5      5  H        0   0.987000          1.307000         -0.971000
      6      6  C        0   2.779000          0.153000         -0.504000
      7      7  H        0   3.689000          0.384000          0.059000
      8      8  H        0   3.031000          0.222000         -1.566000
      9      9  C        0   2.231000         -1.240000         -0.112000
     10     10  H        0   2.866000         -1.707000          0.647000
     11     11  H        0   2.185000         -1.928000         -0.962000
     12     12  C        0   0.830000         -0.941000          0.469000
     13     13  H        0   0.542000         -1.609000          1.286000
     14     14  H        0   0.068000         -1.027000         -0.314000
     15         X       11   1.000000(    14)      9   90.000(    30)     12   11.474(    45)      0
     16     15  O       11   2.822763(    15)     15   90.000(    31)      9  180.000(    46)      0
     17     16  H       16   0.957200(    16)     11  127.740(    32)     15    0.000(    47)      0
     18     17  H       16   0.957200(    17)     11  127.740(    33)     15  180.000(    48)      0
 ---------------------------------------------------------------------------------------------------
                         Z-Matrix orientation:                         
 ---------------------------------------------------------------------
 Center     Atomic      Atomic             Coordinates (Angstroms)
 Number     Number       Type             X           Y           Z
 ---------------------------------------------------------------------
      1          7           0        0.844000    0.456000    0.923000
      2          1           0        1.372000    0.495000    1.798000
      3          6           0        1.643000    1.125000   -0.113000
      4          1           0        2.000000    2.097000    0.243000
      5          1           0        0.987000    1.307000   -0.971000
      6          6           0        2.779000    0.153000   -0.504000
      7          1           0        3.689000    0.384000    0.059000
      8          1           0        3.031000    0.222000   -1.566000
      9          6           0        2.231000   -1.240000   -0.112000
     10          1           0        2.866000   -1.707000    0.647000
     11          1           0        2.185000   -1.928000   -0.962000
     12          6           0        0.830000   -0.941000    0.469000
     13          1           0        0.542000   -1.609000    1.286000
     14          1           0        0.068000   -1.027000   -0.314000
     15         -1           0        1.191621   -1.818526   -0.996850
     16          8           0        2.066365   -3.702360   -3.154160
     17          1           0        1.289804   -3.987773   -3.635536
     18          1           0        2.793680   -4.153505   -3.582777
 ---------------------------------------------------------------------
                    Distance matrix (angstroms):
                    1          2          3          4          5
     1  N    0.000000
     2  H    1.022707   0.000000
     3  C    1.469441   2.030335   0.000000
     4  H    2.119343   2.319227   1.094974   0.000000
     5  H    2.081318   2.911173   1.095274   1.767502   0.000000
     6  C    2.423296   2.719525   1.545368   2.223508   2.181987
     7  H    2.974173   2.899126   2.182838   2.412664   3.035397
     8  H    3.321573   3.760759   2.202989   2.801975   2.389390
     9  C    2.423099   2.719597   2.437000   3.363771   2.961862
    10  H    2.973757   2.899248   3.177035   3.922192   3.902917
    11  H    3.321891   3.761582   3.214868   4.205577   3.449712
    12  C    1.468986   2.030296   2.295223   3.263345   2.674276
    13  H    2.118301   2.319021   3.262539   4.116801   3.714180
    14  H    2.081258   2.911605   2.674347   3.715138   2.593023
    15  X    2.996687   3.632647   3.106329   4.185935   3.132324
    16  O    5.950577   6.528695   5.721127   6.721434   5.570000
    17  H    6.381701   7.044525   6.218799   7.250647   5.935155
    18  H    6.734302   7.251382   6.420750   7.371249   6.316850
                    6          7          8          9         10
     6  C    0.000000
     7  H    1.094728   0.000000
     8  H    1.093668   1.760634   0.000000
     9  C    1.547390   2.189151   2.211687   0.000000
    10  H    2.189057   2.322790   2.940346   1.094255   0.000000
    11  H    2.212049   2.941054   2.388102   1.094514   1.761103
    12  C    2.437656   3.177673   3.215306   1.545886   2.182598
    13  H    3.363467   3.921886   4.204948   2.223350   2.412240
    14  H    2.962773   3.904061   3.450634   2.182829   3.035577
    15  X    2.578680   3.493257   2.805529   1.482552   2.349090
    16  O    4.732335   5.445703   4.342047   3.917277   4.366886
    17  H    5.400947   6.206299   5.003692   4.566335   5.101611
    18  H    5.293871   5.886688   4.823770   4.566335   4.886884
                   11         12         13         14         15
    11  H    0.000000
    12  C    2.204077   0.000000
    13  H    2.802626   1.093918   0.000000
    14  H    2.390271   1.095960   1.767314   0.000000
    15  X    1.000000   1.746293   2.382711   1.534706   0.000000
    16  O    2.822763   4.720275   5.140123   4.383780   2.994661
    17  H    3.491681   5.132394   5.517181   4.614281   3.417300
    18  H    3.491681   5.531105   5.937134   5.281029   3.834806
                   16         17         18
    16  O    0.000000
    17  H    0.957200   0.000000
    18  H    0.957200   1.513901   0.000000
 Stoichiometry    C4H11NO
 Framework group  C1[X(C4H11NO)]
 Deg. of freedom    45
 Full point group                 C1      NOp   1
 Largest Abelian subgroup         C1      NOp   1
 Largest concise Abelian subgroup C1      NOp   1
                         Standard orientation:                         
 ---------------------------------------------------------------------
 Center     Atomic      Atomic             Coordinates (Angstroms)
 Number     Number       Type             X           Y           Z
 ---------------------------------------------------------------------
      1          7           0       -2.027921   -0.705554   -0.247434
      2          1           0       -2.551096   -0.716017    0.631263
      3          6           0       -1.785249    0.698123   -0.608071
      4          1           0       -2.710742    1.279329   -0.540026
      5          1           0       -1.456672    0.719525   -1.652678
      6          6           0       -0.660460    1.213518    0.317877
      7          1           0       -1.086557    1.723279    1.187943
      8          1           0       -0.008354    1.930865   -0.188363
      9          6           0        0.088262   -0.070680    0.747610
     10          1           0        0.037552   -0.204497    1.832468
     11          1           0        1.147875   -0.050867    0.474137
     12          6           0       -0.675215   -1.206974    0.029487
     13          1           0       -0.718884   -2.137311    0.603267
     14          1           0       -0.202394   -1.432855   -0.933086
     15          8           0        3.880629    0.000230   -0.231154
     16          1           0        4.312197   -0.478906   -0.938550
     17          1           0        4.583462    0.500576    0.183468
 ---------------------------------------------------------------------
 Rotational constants (GHZ):           5.6538461           1.1716170           1.0724188

 **********************************************************************

            Population analysis using the SCF density.

 **********************************************************************

 Orbital symmetries:
       Occupied  (A) (A) (A) (A) (A) (A) (A) (A) (A) (A) (A) (A)
                 (A) (A) (A) (A) (A) (A) (A) (A) (A) (A) (A) (A)
                 (A)
       Virtual   (A) (A) (A) (A) (A) (A) (A) (A) (A) (A) (A) (A)
                 (A) (A) (A) (A) (A) (A) (A) (A) (A) (A) (A) (A)
                 (A) (A) (A) (A) (A) (A) (A) (A) (A) (A) (A) (A)
                 (A) (A) (A) (A) (A) (A) (A) (A) (A) (A) (A) (A)
                 (A) (A) (A) (A) (A) (A) (A) (A) (A) (A) (A) (A)
                 (A) (A) (A) (A) (A) (A) (A) (A) (A) (A) (A) (A)
                 (A) (A) (A) (A) (A) (A) (A) (A) (A) (A) (A) (A)
                 (A) (A) (A)
 The electronic state is 1-A.
 Alpha  occ. eigenvalues --  -20.56730 -15.53176 -11.23341 -11.23143 -11.20748
 Alpha  occ. eigenvalues --  -11.20269  -1.34819  -1.20709  -1.00729  -0.95860
 Alpha  occ. eigenvalues --   -0.80423  -0.77160  -0.71332  -0.66548  -0.62521
 Alpha  occ. eigenvalues --   -0.57975  -0.57761  -0.57276  -0.50451  -0.49648
 Alpha  occ. eigenvalues --   -0.48224  -0.46692  -0.46469  -0.44558  -0.36342
 Alpha virt. eigenvalues --    0.20081   0.22342   0.26314   0.29592   0.29927
 Alpha virt. eigenvalues --    0.30337   0.31404   0.33860   0.34877   0.35229
 Alpha virt. eigenvalues --    0.37760   0.38806   0.42341   0.42793   0.49687
 Alpha virt. eigenvalues --    0.53534   0.73872   0.77387   0.77545   0.80817
 Alpha virt. eigenvalues --    0.81514   0.84832   0.91456   0.93196   0.93581
 Alpha virt. eigenvalues --    0.96033   1.01491   1.02753   1.03791   1.07497
 Alpha virt. eigenvalues --    1.10434   1.12011   1.13739   1.14570   1.15517
 Alpha virt. eigenvalues --    1.16131   1.17386   1.20315   1.20943   1.22032
 Alpha virt. eigenvalues --    1.24066   1.24582   1.24953   1.37465   1.40156
 Alpha virt. eigenvalues --    1.43663   1.50801   1.53717   1.60376   1.61157
 Alpha virt. eigenvalues --    1.70507   1.92019   2.01868   2.02722   2.03832
 Alpha virt. eigenvalues --    2.06090   2.09884   2.13357   2.15240   2.20966
 Alpha virt. eigenvalues --    2.23579   2.30190   2.32956   2.36033   2.43379
 Alpha virt. eigenvalues --    2.44303   2.44460   2.52141   2.58305   2.60321
 Alpha virt. eigenvalues --    2.62000   2.72628   2.74653   2.82699   2.91243
 Alpha virt. eigenvalues --    2.94077   2.96568   2.98805   3.00131   3.03946
 Alpha virt. eigenvalues --    3.25107   3.99701   4.35936   4.62669   4.69491
 Alpha virt. eigenvalues --    4.87415   5.06485
          Condensed to atoms (all electrons):
               1          2          3          4          5          6
     1  N    7.065539   0.327201   0.294854  -0.033691  -0.047588  -0.085339
     2  H    0.327201   0.436136  -0.042587  -0.005458   0.005737  -0.000678
     3  C    0.294854  -0.042587   4.976677   0.403109   0.405666   0.334586
     4  H   -0.033691  -0.005458   0.403109   0.527513  -0.026955  -0.035617
     5  H   -0.047588   0.005737   0.405666  -0.026955   0.548267  -0.053660
     6  C   -0.085339  -0.000678   0.334586  -0.035617  -0.053660   5.204350
     7  H    0.002690   0.000971  -0.038824  -0.004327   0.003893   0.395233
     8  H    0.004378  -0.000028  -0.032370   0.001379  -0.002538   0.391617
     9  C   -0.085351  -0.000653  -0.060696   0.003850  -0.000412   0.319557
    10  H    0.002715   0.000973   0.003400  -0.000167  -0.000013  -0.039922
    11  H    0.003927  -0.000021   0.002606  -0.000056   0.000146  -0.030457
    12  C    0.291298  -0.042438  -0.095041   0.006176  -0.001906  -0.061340
    13  H   -0.033817  -0.005460   0.006164  -0.000116  -0.000174   0.003910
    14  H   -0.047817   0.005725  -0.001886  -0.000173   0.003464  -0.000421
    15  O   -0.000000  -0.000000   0.000000   0.000000  -0.000000   0.000014
    16  H    0.000000   0.000000   0.000000  -0.000000   0.000000  -0.000001
    17  H    0.000000   0.000000   0.000000  -0.000000   0.000000  -0.000002
               7          8          9         10         11         12
     1  N    0.002690   0.004378  -0.085351   0.002715   0.003927   0.291298
     2  H    0.000971  -0.000028  -0.000653   0.000973  -0.000021  -0.042438
     3  C   -0.038824  -0.032370  -0.060696   0.003400   0.002606  -0.095041
     4  H   -0.004327   0.001379   0.003850  -0.000167  -0.000056   0.006176
     5  H    0.003893  -0.002538  -0.000412  -0.000013   0.000146  -0.001906
     6  C    0.395233   0.391617   0.319557  -0.039922  -0.030457  -0.061340
     7  H    0.550568  -0.026394  -0.038554  -0.006419   0.002324   0.003344
     8  H   -0.026394   0.526501  -0.032961   0.002616  -0.003096   0.002904
     9  C   -0.038554  -0.032961   5.229864   0.394409   0.389915   0.334249
    10  H   -0.006419   0.002616   0.394409   0.552221  -0.023092  -0.039617
    11  H    0.002324  -0.003096   0.389915  -0.023092   0.472191  -0.029543
    12  C    0.003344   0.002904   0.334249  -0.039617  -0.029543   4.978246
    13  H   -0.000166  -0.000063  -0.035180  -0.004300   0.001152   0.403403
    14  H   -0.000012   0.000157  -0.053408   0.003873  -0.002082   0.405744
    15  O   -0.000000   0.000007  -0.001585   0.000005   0.006751   0.000017
    16  H    0.000000  -0.000000   0.000070  -0.000000  -0.000203  -0.000002
    17  H    0.000000  -0.000000   0.000070  -0.000001  -0.000201  -0.000001
              13         14         15         16         17
     1  N   -0.033817  -0.047817  -0.000000   0.000000   0.000000
     2  H   -0.005460   0.005725  -0.000000   0.000000   0.000000
     3  C    0.006164  -0.001886   0.000000   0.000000   0.000000
     4  H   -0.000116  -0.000173   0.000000  -0.000000  -0.000000
     5  H   -0.000174   0.003464  -0.000000   0.000000   0.000000
     6  C    0.003910  -0.000421   0.000014  -0.000001  -0.000002
     7  H   -0.000166  -0.000012  -0.000000   0.000000   0.000000
     8  H   -0.000063   0.000157   0.000007  -0.000000  -0.000000
     9  C   -0.035180  -0.053408  -0.001585   0.000070   0.000070
    10  H   -0.004300   0.003873   0.000005  -0.000000  -0.000001
    11  H    0.001152  -0.002082   0.006751  -0.000203  -0.000201
    12  C    0.403403   0.405744   0.000017  -0.000002  -0.000001
    13  H    0.526599  -0.026798   0.000000   0.000000   0.000000
    14  H   -0.026798   0.547495   0.000000   0.000001  -0.000000
    15  O    0.000000   0.000000   8.330235   0.264845   0.264867
    16  H    0.000000   0.000001   0.264845   0.317726  -0.018264
    17  H    0.000000  -0.000000   0.264867  -0.018264   0.317830
 Mulliken charges:
               1
     1  N   -0.659000
     2  H    0.320580
     3  C   -0.155658
     4  H    0.164536
     5  H    0.166073
     6  C   -0.341830
     7  H    0.155672
     8  H    0.167892
     9  C   -0.363184
    10  H    0.153319
    11  H    0.209737
    12  C   -0.155494
    13  H    0.164844
    14  H    0.166137
    15  O   -0.865156
    16  H    0.435829
    17  H    0.435702
 Sum of Mulliken charges =  -0.00000
 Mulliken charges with hydrogens summed into heavy atoms:
               1
     1  N   -0.338420
     3  C    0.174951
     6  C   -0.018266
     9  C   -0.000128
    12  C    0.175488
    15  O    0.006375
 Electronic spatial extent (au):  <R**2>=           1112.2885
 Charge=             -0.0000 electrons
 Dipole moment (field-independent basis, Debye):
    X=              3.2205    Y=              0.8254    Z=              0.5547  Tot=              3.3706
 Quadrupole moment (field-independent basis, Debye-Ang):
   XX=            -23.1693   YY=            -39.4475   ZZ=            -37.6966
   XY=             -2.2789   XZ=             -6.6142   YZ=             -0.5082
 Traceless Quadrupole moment (field-independent basis, Debye-Ang):
   XX=             10.2685   YY=             -6.0097   ZZ=             -4.2588
   XY=             -2.2789   XZ=             -6.6142   YZ=             -0.5082
 Octapole moment (field-independent basis, Debye-Ang**2):
  XXX=            137.7169  YYY=             -1.2410  ZZZ=             -2.4241  XYY=             11.8625
  XXY=             11.5924  XXZ=             -3.3446  XZZ=             12.4918  YZZ=             -1.1150
  YYZ=              1.0111  XYZ=             10.4831
 Hexadecapole moment (field-independent basis, Debye-Ang**3):
 XXXX=           -376.2405 YYYY=           -235.2634 ZZZZ=           -115.1926 XXXY=              5.4865
 XXXZ=            -91.3081 YYYX=             -0.0373 YYYZ=             -3.8423 ZZZX=            -17.2328
 ZZZY=              0.4272 XXYY=           -197.2552 XXZZ=           -159.5985 YYZZ=            -58.6169
 XXYZ=             15.8657 YYXZ=             -9.0760 ZZXY=             -4.9203
 N-N= 2.415883781971D+02 E-N=-1.156074971426D+03  KE= 2.866462821968D+02


 "WOULD YOU TELL ME PLEASE, WHICH WAY I OUGHT TO WALK FROM HERE?"
 "THAT DEPENDS A GREAT DEAL ON WHERE YOU WANT TO GO," SAID THE CAT.
 "I DON'T MUCH CARE WHERE -- ", SAID ALICE.
 "THEN IT DOESN'T MATTER WHICH WAY YOU WALK," SAID THE CAT.

                                      -- LEWIS CARROLL
 Error termination request processed by link 9999.
 Error termination via Lnk1e in /home1/apps/gaussian/16rA.03/g16/l9999.exe at Wed Mar 31 17:30:04 2021.
 Job cpu time:       0 days  0 hours 22 minutes  5.1 seconds.
 Elapsed time:       0 days  0 hours 21 minutes 40.2 seconds.
 File lengths (MBytes):  RWF=     10 Int=      0 D2E=      0 Chk=      2 Scr=      1
