 Entering Gaussian System, Link 0=g16
 Initial command:
 /home1/apps/gaussian/16rA.03/g16/l1.exe "/tmp/Gau-262535.inp" -scrdir="/tmp/"
 Entering Link 1 = /home1/apps/gaussian/16rA.03/g16/l1.exe PID=    262536.
  
 Copyright (c) 1988,1990,1992,1993,1995,1998,2003,2009,2016,
            Gaussian, Inc.  All Rights Reserved.
  
 This is part of the Gaussian(R) 16 program.  It is based on
 the Gaussian(R) 09 system (copyright 2009, Gaussian, Inc.),
 the Gaussian(R) 03 system (copyright 2003, Gaussian, Inc.),
 the Gaussian(R) 98 system (copyright 1998, Gaussian, Inc.),
 the Gaussian(R) 94 system (copyright 1995, Gaussian, Inc.),
 the Gaussian 92(TM) system (copyright 1992, Gaussian, Inc.),
 the Gaussian 90(TM) system (copyright 1990, Gaussian, Inc.),
 the Gaussian 88(TM) system (copyright 1988, Gaussian, Inc.),
 the Gaussian 86(TM) system (copyright 1986, Carnegie Mellon
 University), and the Gaussian 82(TM) system (copyright 1983,
 Carnegie Mellon University). Gaussian is a federally registered
 trademark of Gaussian, Inc.
  
 This software contains proprietary and confidential information,
 including trade secrets, belonging to Gaussian, Inc.
  
 This software is provided under written license and may be
 used, copied, transmitted, or stored only in accord with that
 written license.
  
 The following legend is applicable only to US Government
 contracts under FAR:
  
                    RESTRICTED RIGHTS LEGEND
  
 Use, reproduction and disclosure by the US Government is
 subject to restrictions as set forth in subparagraphs (a)
 and (c) of the Commercial Computer Software - Restricted
 Rights clause in FAR 52.227-19.
  
 Gaussian, Inc.
 340 Quinnipiac St., Bldg. 40, Wallingford CT 06492
  
  
 ---------------------------------------------------------------
 Warning -- This program may not be used in any manner that
 competes with the business of Gaussian, Inc. or will provide
 assistance to any competitor of Gaussian, Inc.  The licensee
 of this program is prohibited from giving any competitor of
 Gaussian, Inc. access to this program.  By using this program,
 the user acknowledges that Gaussian, Inc. is engaged in the
 business of creating and licensing software in the field of
 computational chemistry and represents and warrants to the
 licensee that it is not a competitor of Gaussian, Inc. and that
 it will not use this program in any manner prohibited above.
 ---------------------------------------------------------------
  

 Cite this work as:
 Gaussian 16, Revision A.03,
 M. J. Frisch, G. W. Trucks, H. B. Schlegel, G. E. Scuseria, 
 M. A. Robb, J. R. Cheeseman, G. Scalmani, V. Barone, 
 G. A. Petersson, H. Nakatsuji, X. Li, M. Caricato, A. V. Marenich, 
 J. Bloino, B. G. Janesko, R. Gomperts, B. Mennucci, H. P. Hratchian, 
 J. V. Ortiz, A. F. Izmaylov, J. L. Sonnenberg, D. Williams-Young, 
 F. Ding, F. Lipparini, F. Egidi, J. Goings, B. Peng, A. Petrone, 
 T. Henderson, D. Ranasinghe, V. G. Zakrzewski, J. Gao, N. Rega, 
 G. Zheng, W. Liang, M. Hada, M. Ehara, K. Toyota, R. Fukuda, 
 J. Hasegawa, M. Ishida, T. Nakajima, Y. Honda, O. Kitao, H. Nakai, 
 T. Vreven, K. Throssell, J. A. Montgomery, Jr., J. E. Peralta, 
 F. Ogliaro, M. J. Bearpark, J. J. Heyd, E. N. Brothers, K. N. Kudin, 
 V. N. Staroverov, T. A. Keith, R. Kobayashi, J. Normand, 
 K. Raghavachari, A. P. Rendell, J. C. Burant, S. S. Iyengar, 
 J. Tomasi, M. Cossi, J. M. Millam, M. Klene, C. Adamo, R. Cammi, 
 J. W. Ochterski, R. L. Martin, K. Morokuma, O. Farkas, 
 J. B. Foresman, and D. J. Fox, Gaussian, Inc., Wallingford CT, 2016.
 
 ******************************************
 Gaussian 16:  ES64L-G16RevA.03 25-Dec-2016
                31-Mar-2021 
 ******************************************
 %chk=PRLD-DON-H31.chk
 %nproc=1
 Will use up to    1 processors via shared memory.
 %mem=1GB
 --------------------------------------------------------------
 # HF/6-31G* Opt=(Z-matrix,MaxCycles=100) Geom=PrintInputOrient
 --------------------------------------------------------------
 1/6=100,10=7,18=40,38=1/1,3;
 2/9=2000,12=2,17=6,18=5,29=3,40=1/2;
 3/5=1,6=6,7=1,11=9,25=1,30=1,71=1/1,2,3;
 4//1;
 5/5=2,38=5/2;
 6/7=2,8=2,9=2,10=2,28=1/1;
 7/29=1/1,2,3,16;
 1/6=100,10=7,18=40/3(2);
 2/9=2000,29=3/2;
 99//99;
 2/9=2000,29=3/2;
 3/5=1,6=6,7=1,11=9,25=1,30=1,71=1/1,2,3;
 4/5=5,16=3,69=1/1;
 5/5=2,38=5/2;
 7//1,2,3,16;
 1/6=100,18=40/3(-5);
 2/9=2000,29=3/2;
 6/7=2,8=2,9=2,10=2,19=2,28=1/1;
 99/9=1/99;
 ---------------------------------------------------------------
 <qmtool> simtype="Geometry optimization" </qmtool> PRLD-DON-H31
 ---------------------------------------------------------------
 Symbolic Z-matrix:
 Charge =  0 Multiplicity = 1
 N1                    0.844     0.456     0.923 
 H2                    1.372     0.495     1.798 
 C3                    1.643     1.125    -0.113 
 H4                    2.        2.097     0.243 
 H5                    0.987     1.307    -0.971 
 C6                    2.779     0.153    -0.504 
 H7                    3.689     0.384     0.059 
 H8                    3.031     0.222    -1.566 
 C9                    2.231    -1.24     -0.112 
 H10                   2.866    -1.707     0.647 
 H11                   2.185    -1.928    -0.962 
 C12                   0.83     -0.941     0.469 
 H13                   0.542    -1.609     1.286 
 H14                   0.068    -1.027    -0.314 
 x                    H7    1.       C6    90.      C9   dih      0
 Ow                   H7   rAH      x     90.      C6    180.     0
 H1w                  Ow    0.9572   H7    127.74   x     0.       0
 H2w                  Ow    0.9572   H7    127.74   x     180.     0
       Variables:
  rAH                   2.                       
  dih                   0.                       
 

 GradGradGradGradGradGradGradGradGradGradGradGradGradGradGradGradGradGrad
 Berny optimization.
 Initialization pass.
                       ----------------------------
                       !    Initial Parameters    !
                       ! (Angstroms and Degrees)  !
 ----------------------                            ----------------------
 !      Name          Value   Derivative information (Atomic Units)     !
 ------------------------------------------------------------------------
 !       rAH         2.0      estimate D2E/DX2                          !
 !       dih         0.0      estimate D2E/DX2                          !
 ------------------------------------------------------------------------
 Trust Radius=3.00D-01 FncErr=1.00D-07 GrdErr=1.00D-07 EigMax=2.50D+02 EigMin=1.00D-04
 Number of steps in this run=    100 maximum allowed number of steps=    100.
 GradGradGradGradGradGradGradGradGradGradGradGradGradGradGradGradGradGrad

 ---------------------------------------------------------------------------------------------------
                            Z-MATRIX (ANGSTROMS AND DEGREES)
   CD    Cent   Atom    N1       Length/X        N2       Alpha/Y        N3        Beta/Z          J
 ---------------------------------------------------------------------------------------------------
      1      1  N        0   0.844000          0.456000          0.923000
      2      2  H        0   1.372000          0.495000          1.798000
      3      3  C        0   1.643000          1.125000         -0.113000
      4      4  H        0   2.000000          2.097000          0.243000
      5      5  H        0   0.987000          1.307000         -0.971000
      6      6  C        0   2.779000          0.153000         -0.504000
      7      7  H        0   3.689000          0.384000          0.059000
      8      8  H        0   3.031000          0.222000         -1.566000
      9      9  C        0   2.231000         -1.240000         -0.112000
     10     10  H        0   2.866000         -1.707000          0.647000
     11     11  H        0   2.185000         -1.928000         -0.962000
     12     12  C        0   0.830000         -0.941000          0.469000
     13     13  H        0   0.542000         -1.609000          1.286000
     14     14  H        0   0.068000         -1.027000         -0.314000
     15         X        7   1.000000(    14)      6   90.000(    30)      9    0.000(    45)      0
     16     15  O        7   2.000000(    15)     15   90.000(    31)      6  180.000(    46)      0
     17     16  H       16   0.957200(    16)      7  127.740(    32)     15    0.000(    47)      0
     18     17  H       16   0.957200(    17)      7  127.740(    33)     15  180.000(    48)      0
 ---------------------------------------------------------------------------------------------------
                         Z-Matrix orientation:                         
 ---------------------------------------------------------------------
 Center     Atomic      Atomic             Coordinates (Angstroms)
 Number     Number       Type             X           Y           Z
 ---------------------------------------------------------------------
      1          7           0        0.844000    0.456000    0.923000
      2          1           0        1.372000    0.495000    1.798000
      3          6           0        1.643000    1.125000   -0.113000
      4          1           0        2.000000    2.097000    0.243000
      5          1           0        0.987000    1.307000   -0.971000
      6          6           0        2.779000    0.153000   -0.504000
      7          1           0        3.689000    0.384000    0.059000
      8          1           0        3.031000    0.222000   -1.566000
      9          6           0        2.231000   -1.240000   -0.112000
     10          1           0        2.866000   -1.707000    0.647000
     11          1           0        2.185000   -1.928000   -0.962000
     12          6           0        0.830000   -0.941000    0.469000
     13          1           0        0.542000   -1.609000    1.286000
     14          1           0        0.068000   -1.027000   -0.314000
     15         -1           0        3.625025   -0.498693    0.524575
     16          8           0        5.351513    0.806023    1.087566
     17          1           0        5.790106    0.261496    1.741292
     18          1           0        5.886957    1.597805    1.036458
 ---------------------------------------------------------------------
                    Distance matrix (angstroms):
                    1          2          3          4          5
     1  N    0.000000
     2  H    1.022707   0.000000
     3  C    1.469441   2.030335   0.000000
     4  H    2.119343   2.319227   1.094974   0.000000
     5  H    2.081318   2.911173   1.095274   1.767502   0.000000
     6  C    2.423296   2.719525   1.545368   2.223508   2.181987
     7  H    2.974173   2.899126   2.182838   2.412664   3.035397
     8  H    3.321573   3.760759   2.202989   2.801975   2.389390
     9  C    2.423099   2.719597   2.437000   3.363771   2.961862
    10  H    2.973757   2.899248   3.177035   3.922192   3.902917
    11  H    3.321891   3.761582   3.214868   4.205577   3.449712
    12  C    1.468986   2.030296   2.295223   3.263345   2.674276
    13  H    2.118301   2.319021   3.262539   4.116801   3.714180
    14  H    2.081258   2.911605   2.674347   3.715138   2.593023
    15  X    2.967201   2.772212   2.640323   3.075323   3.529370
    16  O    4.524077   4.054377   3.911032   3.689519   4.851561
    17  H    5.017110   4.424635   4.624124   4.469772   5.614217
    18  H    5.171847   4.709667   4.422213   3.998400   5.303209
                    6          7          8          9         10
     6  C    0.000000
     7  H    1.094728   0.000000
     8  H    1.093668   1.760634   0.000000
     9  C    1.547390   2.189151   2.211687   0.000000
    10  H    2.189057   2.322790   2.940346   1.094255   0.000000
    11  H    2.212049   2.941054   2.388102   1.094514   1.761103
    12  C    2.437656   3.177673   3.215306   1.545886   2.182598
    13  H    3.363467   3.921886   4.204948   2.223350   2.412240
    14  H    2.962773   3.904061   3.450634   2.182829   3.035577
    15  X    1.482710   1.000000   2.289709   1.702372   1.432171
    16  O    3.094728   2.000000   3.573132   3.919537   3.561903
    17  H    3.757641   2.694394   4.307251   4.284439   3.690914
    18  H    3.757641   2.694394   4.101477   4.768450   4.494396
                   11         12         13         14         15
    11  H    0.000000
    12  C    2.204077   0.000000
    13  H    2.802626   1.093918   0.000000
    14  H    2.390271   1.095960   1.767314   0.000000
    15  X    2.515253   2.830352   3.364163   3.692526   0.000000
    16  O    4.658584   4.886593   5.385455   5.765403   2.236068
    17  H    5.009837   5.259978   5.590050   6.215058   2.597279
    18  H    5.489045   5.686858   6.238143   6.524844   3.126286
                   16         17         18
    16  O    0.000000
    17  H    0.957200   0.000000
    18  H    0.957200   1.513901   0.000000
 Stoichiometry    C4H11NO
 Framework group  C1[X(C4H11NO)]
 Deg. of freedom    45
 Full point group                 C1      NOp   1
 Largest Abelian subgroup         C1      NOp   1
 Largest concise Abelian subgroup C1      NOp   1
                         Standard orientation:                         
 ---------------------------------------------------------------------
 Center     Atomic      Atomic             Coordinates (Angstroms)
 Number     Number       Type             X           Y           Z
 ---------------------------------------------------------------------
      1          7           0       -1.345215   -0.857523   -0.700343
      2          1           0       -0.708365   -0.839921   -1.500368
      3          6           0       -0.552048   -1.166643    0.497400
      4          1           0        0.093173   -2.033271    0.319595
      5          1           0       -1.250885   -1.432583    1.297730
      6          6           0        0.223521    0.117517    0.868327
      7          1           0        1.231761    0.090264    0.442722
      8          1           0        0.333614    0.232543    1.950343
      9          6           0       -0.609647    1.255063    0.230961
     10          1           0       -0.019339    1.797740   -0.513642
     11          1           0       -0.952658    1.988321    0.967600
     12          6           0       -1.787892    0.520354   -0.448526
     13          1           0       -2.123482    0.993077   -1.376195
     14          1           0       -2.647625    0.473153    0.229530
     15          8           0        3.073752    0.040476   -0.334833
     16          1           0        3.441477    0.613764   -1.007404
     17          1           0        3.785216   -0.561981   -0.117818
 ---------------------------------------------------------------------
 Rotational constants (GHZ):           4.9987768           1.6726126           1.5251327
 Standard basis: 6-31G(d) (6D, 7F)
 There are   112 symmetry adapted cartesian basis functions of A   symmetry.
 There are   112 symmetry adapted basis functions of A   symmetry.
   112 basis functions,   212 primitive gaussians,   112 cartesian basis functions
    25 alpha electrons       25 beta electrons
       nuclear repulsion energy       251.3711954258 Hartrees.
 NAtoms=   17 NActive=   17 NUniq=   17 SFac= 1.00D+00 NAtFMM=   60 NAOKFM=F Big=F
 Integral buffers will be    131072 words long.
 Raffenetti 1 integral format.
 Two-electron integral symmetry is turned on.
 One-electron integrals computed using PRISM.
 NBasis=   112 RedAO= T EigKep=  3.06D-03  NBF=   112
 NBsUse=   112 1.00D-06 EigRej= -1.00D+00 NBFU=   112
 ExpMin= 1.61D-01 ExpMax= 5.48D+03 ExpMxC= 8.25D+02 IAcc=3 IRadAn=         5 AccDes= 0.00D+00
 Harris functional with IExCor=  205 and IRadAn=       5 diagonalized for initial guess.
 HarFok:  IExCor=  205 AccDes= 0.00D+00 IRadAn=         5 IDoV= 1 UseB2=F ITyADJ=14
 ICtDFT=  3500011 ScaDFX=  1.000000  1.000000  1.000000  1.000000
 FoFCou: FMM=F IPFlag=           0 FMFlag=      100000 FMFlg1=           0
         NFxFlg=           0 DoJE=T BraDBF=F KetDBF=T FulRan=T
         wScrn=  0.000000 ICntrl=       500 IOpCl=  0 I1Cent=   200000004 NGrid=           0
         NMat0=    1 NMatS0=      1 NMatT0=    0 NMatD0=    1 NMtDS0=    0 NMtDT0=    0
 Petite list used in FoFCou.
 Keep R1 ints in memory in canonical form, NReq=20924397.
 Requested convergence on RMS density matrix=1.00D-08 within 128 cycles.
 Requested convergence on MAX density matrix=1.00D-06.
 Requested convergence on             energy=1.00D-06.
 No special actions if energy rises.
 SCF Done:  E(RHF) =  -287.150369968     A.U. after   12 cycles
            NFock= 12  Conv=0.67D-08     -V/T= 2.0016

 **********************************************************************

            Population analysis using the SCF density.

 **********************************************************************

 Orbital symmetries:
       Occupied  (A) (A) (A) (A) (A) (A) (A) (A) (A) (A) (A) (A)
                 (A) (A) (A) (A) (A) (A) (A) (A) (A) (A) (A) (A)
                 (A)
       Virtual   (A) (A) (A) (A) (A) (A) (A) (A) (A) (A) (A) (A)
                 (A) (A) (A) (A) (A) (A) (A) (A) (A) (A) (A) (A)
                 (A) (A) (A) (A) (A) (A) (A) (A) (A) (A) (A) (A)
                 (A) (A) (A) (A) (A) (A) (A) (A) (A) (A) (A) (A)
                 (A) (A) (A) (A) (A) (A) (A) (A) (A) (A) (A) (A)
                 (A) (A) (A) (A) (A) (A) (A) (A) (A) (A) (A) (A)
                 (A) (A) (A) (A) (A) (A) (A) (A) (A) (A) (A) (A)
                 (A) (A) (A)
 The electronic state is 1-A.
 Alpha  occ. eigenvalues --  -20.57640 -15.52724 -11.22943 -11.22539 -11.20241
 Alpha  occ. eigenvalues --  -11.18815  -1.35896  -1.20184  -1.00037  -0.95284
 Alpha  occ. eigenvalues --   -0.79902  -0.76562  -0.72322  -0.66122  -0.61979
 Alpha  occ. eigenvalues --   -0.60671  -0.57097  -0.55506  -0.51495  -0.49180
 Alpha  occ. eigenvalues --   -0.47737  -0.46179  -0.45668  -0.43121  -0.35833
 Alpha virt. eigenvalues --    0.19241   0.23720   0.26500   0.29038   0.30287
 Alpha virt. eigenvalues --    0.31331   0.32112   0.33875   0.35227   0.37385
 Alpha virt. eigenvalues --    0.39074   0.39309   0.42795   0.47228   0.51554
 Alpha virt. eigenvalues --    0.53980   0.74752   0.77604   0.78001   0.81228
 Alpha virt. eigenvalues --    0.82005   0.85261   0.91874   0.93540   0.93969
 Alpha virt. eigenvalues --    0.96403   1.00721   1.03451   1.05026   1.10704
 Alpha virt. eigenvalues --    1.12092   1.13753   1.14283   1.15742   1.16061
 Alpha virt. eigenvalues --    1.18616   1.19955   1.20636   1.22580   1.23524
 Alpha virt. eigenvalues --    1.25023   1.25459   1.27670   1.37106   1.41695
 Alpha virt. eigenvalues --    1.46118   1.52355   1.59075   1.61231   1.68495
 Alpha virt. eigenvalues --    1.70884   1.93026   2.01477   2.01642   2.05075
 Alpha virt. eigenvalues --    2.10531   2.14115   2.14733   2.18664   2.22875
 Alpha virt. eigenvalues --    2.25993   2.31494   2.34615   2.37252   2.43955
 Alpha virt. eigenvalues --    2.44948   2.45732   2.52812   2.58791   2.60981
 Alpha virt. eigenvalues --    2.61300   2.73734   2.75178   2.83403   2.92078
 Alpha virt. eigenvalues --    2.93269   2.97129   2.99373   3.00874   3.04662
 Alpha virt. eigenvalues --    3.25729   4.08476   4.36776   4.65737   4.72968
 Alpha virt. eigenvalues --    4.88312   5.09884
          Condensed to atoms (all electrons):
               1          2          3          4          5          6
     1  N    7.064927   0.327238   0.292300  -0.033500  -0.048042  -0.083917
     2  H    0.327238   0.435447  -0.042437  -0.005533   0.005792  -0.000680
     3  C    0.292300  -0.042437   4.974282   0.403251   0.404652   0.334191
     4  H   -0.033500  -0.005533   0.403251   0.532045  -0.028493  -0.035727
     5  H   -0.048042   0.005792   0.404652  -0.028493   0.560039  -0.054126
     6  C   -0.083917  -0.000680   0.334191  -0.035727  -0.054126   5.269761
     7  H    0.002558   0.000964  -0.033624  -0.003663   0.003425   0.396306
     8  H    0.004534  -0.000028  -0.034907   0.001503  -0.002693   0.387791
     9  C   -0.086073  -0.000615  -0.061470   0.003967  -0.000345   0.319650
    10  H    0.002598   0.000944   0.003438  -0.000158  -0.000029  -0.040292
    11  H    0.004472  -0.000031   0.003015  -0.000068   0.000174  -0.033133
    12  C    0.296029  -0.042505  -0.095834   0.006189  -0.001930  -0.059965
    13  H   -0.034007  -0.005460   0.006273  -0.000117  -0.000180   0.003797
    14  H   -0.047834   0.005757  -0.002048  -0.000175   0.003522  -0.000379
    15  O   -0.000026   0.000052   0.000463   0.000292  -0.000006  -0.013328
    16  H    0.000002   0.000001  -0.000024  -0.000010   0.000000   0.000685
    17  H    0.000001  -0.000001  -0.000036  -0.000020   0.000001   0.000701
               7          8          9         10         11         12
     1  N    0.002558   0.004534  -0.086073   0.002598   0.004472   0.296029
     2  H    0.000964  -0.000028  -0.000615   0.000944  -0.000031  -0.042505
     3  C   -0.033624  -0.034907  -0.061470   0.003438   0.003015  -0.095834
     4  H   -0.003663   0.001503   0.003967  -0.000158  -0.000068   0.006189
     5  H    0.003425  -0.002693  -0.000345  -0.000029   0.000174  -0.001930
     6  C    0.396306   0.387791   0.319650  -0.040292  -0.033133  -0.059965
     7  H    0.430802  -0.021710  -0.032479  -0.005018   0.002196   0.002504
     8  H   -0.021710   0.549541  -0.035221   0.002781  -0.004008   0.003181
     9  C   -0.032479  -0.035221   5.197420   0.395838   0.390778   0.335857
    10  H   -0.005018   0.002781   0.395838   0.556337  -0.027710  -0.039271
    11  H    0.002196  -0.004008   0.390778  -0.027710   0.539951  -0.032846
    12  C    0.002504   0.003181   0.335857  -0.039271  -0.032846   4.973910
    13  H   -0.000136  -0.000069  -0.035804  -0.004290   0.001404   0.402872
    14  H    0.000014   0.000168  -0.053727   0.003936  -0.002641   0.405302
    15  O   -0.004338   0.000293   0.000333   0.000453  -0.000008  -0.000010
    16  H    0.000826  -0.000014  -0.000034  -0.000049   0.000002   0.000001
    17  H    0.000826  -0.000026  -0.000015  -0.000013   0.000000   0.000001
              13         14         15         16         17
     1  N   -0.034007  -0.047834  -0.000026   0.000002   0.000001
     2  H   -0.005460   0.005757   0.000052   0.000001  -0.000001
     3  C    0.006273  -0.002048   0.000463  -0.000024  -0.000036
     4  H   -0.000117  -0.000175   0.000292  -0.000010  -0.000020
     5  H   -0.000180   0.003522  -0.000006   0.000000   0.000001
     6  C    0.003797  -0.000379  -0.013328   0.000685   0.000701
     7  H   -0.000136   0.000014  -0.004338   0.000826   0.000826
     8  H   -0.000069   0.000168   0.000293  -0.000014  -0.000026
     9  C   -0.035804  -0.053727   0.000333  -0.000034  -0.000015
    10  H   -0.004290   0.003936   0.000453  -0.000049  -0.000013
    11  H    0.001404  -0.002641  -0.000008   0.000002   0.000000
    12  C    0.402872   0.405302  -0.000010   0.000001   0.000001
    13  H    0.531949  -0.027332   0.000000  -0.000000  -0.000000
    14  H   -0.027332   0.552265  -0.000000   0.000000   0.000000
    15  O    0.000000  -0.000000   8.356318   0.262924   0.263158
    16  H   -0.000000   0.000000   0.262924   0.313232  -0.017077
    17  H   -0.000000   0.000000   0.263158  -0.017077   0.312054
 Mulliken charges:
               1
     1  N   -0.661262
     2  H    0.321094
     3  C   -0.151484
     4  H    0.160219
     5  H    0.158238
     6  C   -0.391335
     7  H    0.260549
     8  H    0.148884
     9  C   -0.338060
    10  H    0.150505
    11  H    0.158454
    12  C   -0.153484
    13  H    0.161099
    14  H    0.163173
    15  O   -0.866570
    16  H    0.439536
    17  H    0.440445
 Sum of Mulliken charges =  -0.00000
 Mulliken charges with hydrogens summed into heavy atoms:
               1
     1  N   -0.340167
     3  C    0.166972
     6  C    0.018097
     9  C   -0.029101
    12  C    0.170788
    15  O    0.013411
 Electronic spatial extent (au):  <R**2>=            859.0490
 Charge=             -0.0000 electrons
 Dipole moment (field-independent basis, Debye):
    X=              3.9675    Y=              0.8979    Z=             -0.8069  Tot=              4.1471
 Quadrupole moment (field-independent basis, Debye-Ang):
   XX=            -27.8978   YY=            -40.1576   ZZ=            -36.9497
   XY=             -4.2338   XZ=             -5.6119   YZ=             -2.6231
 Traceless Quadrupole moment (field-independent basis, Debye-Ang):
   XX=              7.1039   YY=             -5.1559   ZZ=             -1.9480
   XY=             -4.2338   XZ=             -5.6119   YZ=             -2.6231
 Octapole moment (field-independent basis, Debye-Ang**2):
  XXX=             94.4239  YYY=              0.1147  ZZZ=             -8.0733  XYY=             15.0276
  XXY=              2.6572  XXZ=            -11.2484  XZZ=             10.1076  YZZ=              1.8022
  YYZ=             -0.6101  XYZ=             -1.4180
 Hexadecapole moment (field-independent basis, Debye-Ang**3):
 XXXX=           -378.5058 YYYY=           -240.0184 ZZZZ=           -139.3522 XXXY=            -33.1167
 XXXZ=            -71.0161 YYYX=             -6.6014 YYYZ=             -2.7313 ZZZX=            -11.9287
 ZZZY=             -1.0262 XXYY=           -145.5705 XXZZ=           -122.6824 YYZZ=            -63.1500
 XXYZ=            -22.9425 YYXZ=            -10.1554 ZZXY=              2.1525
 N-N= 2.513711954258D+02 E-N=-1.175814578220D+03  KE= 2.866849675832D+02
 Calling FoFJK, ICntrl=      2127 FMM=F ISym2X=0 I1Cent= 0 IOpClX= 0 NMat=1 NMatS=1 NMatT=0.
 ***** Axes restored to original set *****
 -------------------------------------------------------------------
 Center     Atomic                   Forces (Hartrees/Bohr)
 Number     Number              X              Y              Z
 -------------------------------------------------------------------
      1        7           0.014223158   -0.004482145    0.005514879
      2        1          -0.009025722   -0.000002657   -0.013280362
      3        6          -0.003850862    0.005309127   -0.000550086
      4        1          -0.002329728   -0.007186232   -0.002615435
      5        1           0.003246101    0.000162138    0.005461762
      6        6           0.008605375    0.004159429    0.001122763
      7        1          -0.013904011   -0.003850791   -0.009158724
      8        1          -0.002792227   -0.000616120    0.004900081
      9        6           0.000277733   -0.005112173   -0.001205779
     10        1          -0.003025091    0.002284692   -0.004327655
     11        1          -0.000123144    0.003552496    0.005735157
     12        6          -0.006216666   -0.000625170    0.002696250
     13        1           0.001611574    0.004155949   -0.005578011
     14        1           0.004583972   -0.000003333    0.005391090
     15        8           0.020123076    0.005184865    0.013361290
     16        1          -0.005173303    0.004409477   -0.006815837
     17        1          -0.006230236   -0.007339554   -0.000651385
 -------------------------------------------------------------------
 Cartesian Forces:  Max     0.020123076 RMS     0.006454769
 -----------------------------------------------------------------------------------------------
                       Internal Coordinate Forces (Hartree/Bohr or radian)
  Cent   Atom   N1       Length/X         N2         Alpha/Y        N3         Beta/Z          J
 -----------------------------------------------------------------------------------------------
      1  N            0.014223(     1)     -0.004482(    19)      0.005515(    37)
      2  H           -0.009026(     2)     -0.000003(    20)     -0.013280(    38)
      3  C           -0.003851(     3)      0.005309(    21)     -0.000550(    39)
      4  H           -0.002330(     4)     -0.007186(    22)     -0.002615(    40)
      5  H            0.003246(     5)      0.000162(    23)      0.005462(    41)
      6  C            0.008864(     6)      0.004096(    24)      0.000731(    42)
      7  H           -0.005469(     7)     -0.001512(    25)     -0.002839(    43)
      8  H           -0.002792(     8)     -0.000616(    26)      0.004900(    44)
      9  C            0.000304(     9)     -0.005132(    27)     -0.001240(    45)
     10  H           -0.003025(    10)      0.002285(    28)     -0.004328(    46)
     11  H           -0.000123(    11)      0.003552(    29)      0.005735(    47)
     12  C           -0.006217(    12)     -0.000625(    30)      0.002696(    48)
     13  H            0.001612(    13)      0.004156(    31)     -0.005578(    49)
     14  H            0.004584(    14)     -0.000003(    32)      0.005391(    50)
         X        7   0.000000(    15)      6  -0.000295(    33)      9   0.000129(    51)     0
     15  O        7   0.010755(    16)     15  -0.000295(    34)      6  -0.001080(    52)     0
     16  H       16  -0.009534(    17)      7  -0.002378(    35)     15   0.000287(    53)     0
     17  H       16  -0.009522(    18)      7  -0.002824(    36)     15  -0.000159(    54)     0
 -----------------------------------------------------------------------------------------------
 Internal  Forces:  Max     0.014223158 RMS     0.005078751

 GradGradGradGradGradGradGradGradGradGradGradGradGradGradGradGradGradGrad
 Berny optimization.
 Search for a local minimum.
 Step number   1 out of a maximum of  100
 All quantities printed in internal units (Hartrees-Bohrs-Radians)
 Second derivative matrix not updated -- first step.
 The second derivative matrix:
                          rAH       dih
           rAH          0.04307
           dih          0.00000   0.00000
 ITU=  0
     Eigenvalues ---    0.00000   0.04307
 RFO step:  Lambda=-2.54273415D-03 EMin= 0.00000000D+00
 Linear search not attempted -- first point.
 Variable       Old X    -DE/DX   Delta X   Delta X   Delta X     New X
                                 (Linear)    (Quad)   (Total)
   rAH        3.77945   0.01076   0.00000   0.23581   0.23581   4.01527
   dih        0.00000   0.00013   0.00000   0.05062   0.05062   0.05062
         Item               Value     Threshold  Converged?
 Maximum Force            0.010755     0.000450     NO 
 RMS     Force            0.007606     0.000300     NO 
 Maximum Displacement     0.235814     0.001800     NO 
 RMS     Displacement     0.170543     0.001200     NO 
 Predicted change in Energy=-1.345322D-03
 GradGradGradGradGradGradGradGradGradGradGradGradGradGradGradGradGradGrad

 ---------------------------------------------------------------------------------------------------
                            Z-MATRIX (ANGSTROMS AND DEGREES)
   CD    Cent   Atom    N1       Length/X        N2       Alpha/Y        N3        Beta/Z          J
 ---------------------------------------------------------------------------------------------------
      1      1  N        0   0.844000          0.456000          0.923000
      2      2  H        0   1.372000          0.495000          1.798000
      3      3  C        0   1.643000          1.125000         -0.113000
      4      4  H        0   2.000000          2.097000          0.243000
      5      5  H        0   0.987000          1.307000         -0.971000
      6      6  C        0   2.779000          0.153000         -0.504000
      7      7  H        0   3.689000          0.384000          0.059000
      8      8  H        0   3.031000          0.222000         -1.566000
      9      9  C        0   2.231000         -1.240000         -0.112000
     10     10  H        0   2.866000         -1.707000          0.647000
     11     11  H        0   2.185000         -1.928000         -0.962000
     12     12  C        0   0.830000         -0.941000          0.469000
     13     13  H        0   0.542000         -1.609000          1.286000
     14     14  H        0   0.068000         -1.027000         -0.314000
     15         X        7   1.000000(    14)      6   90.000(    30)      9    2.900(    45)      0
     16     15  O        7   2.124787(    15)     15   90.000(    31)      6  180.000(    46)      0
     17     16  H       16   0.957200(    16)      7  127.740(    32)     15    0.000(    47)      0
     18     17  H       16   0.957200(    17)      7  127.740(    33)     15  180.000(    48)      0
 ---------------------------------------------------------------------------------------------------
                         Z-Matrix orientation:                         
 ---------------------------------------------------------------------
 Center     Atomic      Atomic             Coordinates (Angstroms)
 Number     Number       Type             X           Y           Z
 ---------------------------------------------------------------------
      1          7           0        0.844000    0.456000    0.923000
      2          1           0        1.372000    0.495000    1.798000
      3          6           0        1.643000    1.125000   -0.113000
      4          1           0        2.000000    2.097000    0.243000
      5          1           0        0.987000    1.307000   -0.971000
      6          6           0        2.779000    0.153000   -0.504000
      7          1           0        3.689000    0.384000    0.059000
      8          1           0        3.031000    0.222000   -1.566000
      9          6           0        2.231000   -1.240000   -0.112000
     10          1           0        2.866000   -1.707000    0.647000
     11          1           0        2.185000   -1.928000   -0.962000
     12          6           0        0.830000   -0.941000    0.469000
     13          1           0        0.542000   -1.609000    1.286000
     14          1           0        0.068000   -1.027000   -0.314000
     15         -1           0        3.653045   -0.518808    0.487539
     16          8           0        5.455243    0.832354    1.151742
     17          1           0        5.915045    0.272601    1.777434
     18          1           0        5.969478    1.639362    1.128668
 ---------------------------------------------------------------------
                    Distance matrix (angstroms):
                    1          2          3          4          5
     1  N    0.000000
     2  H    1.022707   0.000000
     3  C    1.469441   2.030335   0.000000
     4  H    2.119343   2.319227   1.094974   0.000000
     5  H    2.081318   2.911173   1.095274   1.767502   0.000000
     6  C    2.423296   2.719525   1.545368   2.223508   2.181987
     7  H    2.974173   2.899126   2.182838   2.412664   3.035397
     8  H    3.321573   3.760759   2.202989   2.801975   2.389390
     9  C    2.423099   2.719597   2.437000   3.363771   2.961862
    10  H    2.973757   2.899248   3.177035   3.922192   3.902917
    11  H    3.321891   3.761582   3.214868   4.205577   3.449712
    12  C    1.468986   2.030296   2.295223   3.263345   2.674276
    13  H    2.118301   2.319021   3.262539   4.116801   3.714180
    14  H    2.081258   2.911605   2.674347   3.715138   2.593023
    15  X    3.005097   2.819269   2.665151   3.103998   3.545237
    16  O    4.632227   4.147810   4.027209   3.789966   4.969559
    17  H    5.145794   4.548532   4.748757   4.583721   5.736680
    18  H    5.264330   4.784806   4.530421   4.092749   5.417024
                    6          7          8          9         10
     6  C    0.000000
     7  H    1.094728   0.000000
     8  H    1.093668   1.760634   0.000000
     9  C    1.547390   2.189151   2.211687   0.000000
    10  H    2.189057   2.322790   2.940346   1.094255   0.000000
    11  H    2.212049   2.941054   2.388102   1.094514   1.761103
    12  C    2.437656   3.177673   3.215306   1.545886   2.182598
    13  H    3.363467   3.921886   4.204948   2.223350   2.412240
    14  H    2.962773   3.904061   3.450634   2.182829   3.035577
    15  X    1.482710   1.000000   2.269969   1.703461   1.434109
    16  O    3.219515   2.124787   3.692642   4.035770   3.661593
    17  H    3.879952   2.814374   4.415748   4.407960   3.807017
    18  H    3.879952   2.814374   4.231407   4.879160   4.589305
                   11         12         13         14         15
    11  H    0.000000
    12  C    2.204077   0.000000
    13  H    2.802626   1.093918   0.000000
    14  H    2.390271   1.095960   1.767314   0.000000
    15  X    2.498428   2.854501   3.391852   3.708540   0.000000
    16  O    4.773044   5.000379   5.488004   5.884555   2.348344
    17  H    5.124489   5.389111   5.714153   6.344368   2.721544
    18  H    5.605287   5.788580   6.327252   6.634623   3.230264
                   16         17         18
    16  O    0.000000
    17  H    0.957200   0.000000
    18  H    0.957200   1.513901   0.000000
 Stoichiometry    C4H11NO
 Framework group  C1[X(C4H11NO)]
 Deg. of freedom    45
 Full point group                 C1      NOp   1
 Largest Abelian subgroup         C1      NOp   1
 Largest concise Abelian subgroup C1      NOp   1
                         Standard orientation:                         
 ---------------------------------------------------------------------
 Center     Atomic      Atomic             Coordinates (Angstroms)
 Number     Number       Type             X           Y           Z
 ---------------------------------------------------------------------
      1          7           0       -1.357383   -0.857796   -0.710589
      2          1           0       -0.708679   -0.840267   -1.501035
      3          6           0       -0.582036   -1.166049    0.498987
      4          1           0        0.066135   -2.032475    0.331208
      5          1           0       -1.292617   -1.431942    1.288923
      6          6           0        0.187368    0.118608    0.880871
      7          1           0        1.201854    0.091607    0.470362
      8          1           0        0.281261    0.234155    1.964357
      9          6           0       -0.636687    1.255516    0.230646
     10          1           0       -0.035571    1.798123   -0.505311
     11          1           0       -0.990959    1.988946    0.961762
     12          6           0       -1.804354    0.520000   -0.466013
     13          1           0       -2.126273    0.992172   -1.398793
     14          1           0       -2.674084    0.472722    0.199167
     15          8           0        3.170898    0.039199   -0.326406
     16          1           0        3.560288    0.635723   -0.965755
     17          1           0        3.867385   -0.586227   -0.126455
 ---------------------------------------------------------------------
 Rotational constants (GHZ):           4.9663953           1.5995364           1.4664278
 Standard basis: 6-31G(d) (6D, 7F)
 There are   112 symmetry adapted cartesian basis functions of A   symmetry.
 There are   112 symmetry adapted basis functions of A   symmetry.
   112 basis functions,   212 primitive gaussians,   112 cartesian basis functions
    25 alpha electrons       25 beta electrons
       nuclear repulsion energy       249.8508528578 Hartrees.
 NAtoms=   17 NActive=   17 NUniq=   17 SFac= 1.00D+00 NAtFMM=   60 NAOKFM=F Big=F
 Integral buffers will be    131072 words long.
 Raffenetti 1 integral format.
 Two-electron integral symmetry is turned on.
 One-electron integrals computed using PRISM.
 NBasis=   112 RedAO= T EigKep=  3.09D-03  NBF=   112
 NBsUse=   112 1.00D-06 EigRej= -1.00D+00 NBFU=   112
 Initial guess from the checkpoint file:  "PRLD-DON-H31.chk"
 B after Tr=     0.000000    0.000000    0.000000
         Rot=    0.999990    0.000032    0.004422    0.000200 Ang=   0.51 deg.
 ExpMin= 1.61D-01 ExpMax= 5.48D+03 ExpMxC= 8.25D+02 IAcc=2 IRadAn=         4 AccDes= 0.00D+00
 Harris functional with IExCor=  205 and IRadAn=       4 diagonalized for initial guess.
 HarFok:  IExCor=  205 AccDes= 0.00D+00 IRadAn=         4 IDoV= 1 UseB2=F ITyADJ=14
 ICtDFT=  3500011 ScaDFX=  1.000000  1.000000  1.000000  1.000000
 FoFCou: FMM=F IPFlag=           0 FMFlag=      100000 FMFlg1=           0
         NFxFlg=           0 DoJE=T BraDBF=F KetDBF=T FulRan=T
         wScrn=  0.000000 ICntrl=       500 IOpCl=  0 I1Cent=   200000004 NGrid=           0
         NMat0=    1 NMatS0=      1 NMatT0=    0 NMatD0=    1 NMtDS0=    0 NMtDT0=    0
 Petite list used in FoFCou.
 Keep R1 ints in memory in canonical form, NReq=20924096.
 Requested convergence on RMS density matrix=1.00D-08 within 128 cycles.
 Requested convergence on MAX density matrix=1.00D-06.
 Requested convergence on             energy=1.00D-06.
 No special actions if energy rises.
 SCF Done:  E(RHF) =  -287.152383413     A.U. after   10 cycles
            NFock= 10  Conv=0.27D-08     -V/T= 2.0017
 Calling FoFJK, ICntrl=      2127 FMM=F ISym2X=0 I1Cent= 0 IOpClX= 0 NMat=1 NMatS=1 NMatT=0.
 ***** Axes restored to original set *****
 -------------------------------------------------------------------
 Center     Atomic                   Forces (Hartrees/Bohr)
 Number     Number              X              Y              Z
 -------------------------------------------------------------------
      1        7           0.014379832   -0.004509106    0.005413190
      2        1          -0.009061556    0.000018393   -0.013257140
      3        6          -0.003876886    0.005530291   -0.000193405
      4        1          -0.002342930   -0.007247904   -0.002682831
      5        1           0.003379183    0.000047914    0.005416788
      6        6           0.008709714    0.004110750    0.001091016
      7        1          -0.011129329   -0.003131558   -0.007469901
      8        1          -0.002574508   -0.000546604    0.005198102
      9        6           0.000475884   -0.005294192   -0.000947988
     10        1          -0.003083133    0.002376555   -0.004427083
     11        1          -0.000089776    0.003659395    0.005699892
     12        6          -0.006324097   -0.000555937    0.002671414
     13        1           0.001665988    0.004166856   -0.005613755
     14        1           0.004584859   -0.000008231    0.005400365
     15        8           0.017013444    0.004395525    0.011338905
     16        1          -0.005532787    0.004669022   -0.006740494
     17        1          -0.006193902   -0.007681170   -0.000897075
 -------------------------------------------------------------------
 Cartesian Forces:  Max     0.017013444 RMS     0.006064539
 -----------------------------------------------------------------------------------------------
                       Internal Coordinate Forces (Hartree/Bohr or radian)
  Cent   Atom   N1       Length/X         N2         Alpha/Y        N3         Beta/Z          J
 -----------------------------------------------------------------------------------------------
      1  N            0.014380(     1)     -0.004509(    19)      0.005413(    37)
      2  H           -0.009062(     2)      0.000018(    20)     -0.013257(    38)
      3  C           -0.003877(     3)      0.005530(    21)     -0.000193(    39)
      4  H           -0.002343(     4)     -0.007248(    22)     -0.002683(    40)
      5  H            0.003379(     5)      0.000048(    23)      0.005417(    41)
      6  C            0.008952(     6)      0.004053(    24)      0.000723(    42)
      7  H           -0.006108(     7)     -0.001673(    25)     -0.003371(    43)
      8  H           -0.002575(     8)     -0.000547(    26)      0.005198(    44)
      9  C            0.000499(     9)     -0.005312(    27)     -0.000978(    45)
     10  H           -0.003083(    10)      0.002377(    28)     -0.004427(    46)
     11  H           -0.000090(    11)      0.003659(    29)      0.005700(    47)
     12  C           -0.006324(    12)     -0.000556(    30)      0.002671(    48)
     13  H            0.001666(    13)      0.004167(    31)     -0.005614(    49)
     14  H            0.004585(    14)     -0.000008(    32)      0.005400(    50)
         X        7   0.000000(    15)      6  -0.000230(    33)      9   0.000114(    51)     0
     15  O        7   0.006590(    16)     15  -0.000230(    34)      6  -0.001017(    52)     0
     16  H       16  -0.009794(    17)      7  -0.002483(    35)     15   0.000270(    53)     0
     17  H       16  -0.009782(    18)      7  -0.002845(    36)     15  -0.000156(    54)     0
 -----------------------------------------------------------------------------------------------
 Internal  Forces:  Max     0.014379832 RMS     0.005015340

 GradGradGradGradGradGradGradGradGradGradGradGradGradGradGradGradGradGrad
 Berny optimization.
 Search for a local minimum.
 Step number   2 out of a maximum of  100
 All quantities printed in internal units (Hartrees-Bohrs-Radians)
 Update second derivatives using D2CorN and points    1    2
 DE= -2.01D-03 DEPred=-1.35D-03 R= 1.50D+00
 TightC=F SS=  1.41D+00  RLast= 2.41D-01 DXNew= 5.0454D-01 7.2355D-01
 Trust test= 1.50D+00 RLast= 2.41D-01 DXMaxT set to 5.05D-01
 The second derivative matrix:
                          rAH       dih
           rAH          0.01878
           dih         -0.00258   0.00001
 ITU=  1  0
     Eigenvalues ---   -0.00033   0.01913
 RFO step:  Lambda=-6.21816009D-04 EMin=-3.34783881D-04
 Quartic linear search produced a step of  2.00000.
 Maximum step size (   0.505) exceeded in Quadratic search.
    -- Step size scaled by   0.505
 Variable       Old X    -DE/DX   Delta X   Delta X   Delta X     New X
                                 (Linear)    (Quad)   (Total)
   rAH        4.01527   0.00659   0.47163   0.06356   0.53518   4.55045
   dih        0.05062   0.00011   0.10123   0.50052   0.60175   0.65236
         Item               Value     Threshold  Converged?
 Maximum Force            0.006590     0.000450     NO 
 RMS     Force            0.004661     0.000300     NO 
 Maximum Displacement     0.601750     0.001800     NO 
 RMS     Displacement     0.569440     0.001200     NO 
 Predicted change in Energy=-1.733553D-03
 GradGradGradGradGradGradGradGradGradGradGradGradGradGradGradGradGradGrad

 ---------------------------------------------------------------------------------------------------
                            Z-MATRIX (ANGSTROMS AND DEGREES)
   CD    Cent   Atom    N1       Length/X        N2       Alpha/Y        N3        Beta/Z          J
 ---------------------------------------------------------------------------------------------------
      1      1  N        0   0.844000          0.456000          0.923000
      2      2  H        0   1.372000          0.495000          1.798000
      3      3  C        0   1.643000          1.125000         -0.113000
      4      4  H        0   2.000000          2.097000          0.243000
      5      5  H        0   0.987000          1.307000         -0.971000
      6      6  C        0   2.779000          0.153000         -0.504000
      7      7  H        0   3.689000          0.384000          0.059000
      8      8  H        0   3.031000          0.222000         -1.566000
      9      9  C        0   2.231000         -1.240000         -0.112000
     10     10  H        0   2.866000         -1.707000          0.647000
     11     11  H        0   2.185000         -1.928000         -0.962000
     12     12  C        0   0.830000         -0.941000          0.469000
     13     13  H        0   0.542000         -1.609000          1.286000
     14     14  H        0   0.068000         -1.027000         -0.314000
     15         X        7   1.000000(    14)      6   90.000(    30)      9   37.378(    45)      0
     16     15  O        7   2.407994(    15)     15   90.000(    31)      6  180.000(    46)      0
     17     16  H       16   0.957200(    16)      7  127.740(    32)     15    0.000(    47)      0
     18     17  H       16   0.957200(    17)      7  127.740(    33)     15  180.000(    48)      0
 ---------------------------------------------------------------------------------------------------
                         Z-Matrix orientation:                         
 ---------------------------------------------------------------------
 Center     Atomic      Atomic             Coordinates (Angstroms)
 Number     Number       Type             X           Y           Z
 ---------------------------------------------------------------------
      1          7           0        0.844000    0.456000    0.923000
      2          1           0        1.372000    0.495000    1.798000
      3          6           0        1.643000    1.125000   -0.113000
      4          1           0        2.000000    2.097000    0.243000
      5          1           0        0.987000    1.307000   -0.971000
      6          6           0        2.779000    0.153000   -0.504000
      7          1           0        3.689000    0.384000    0.059000
      8          1           0        3.031000    0.222000   -1.566000
      9          6           0        2.231000   -1.240000   -0.112000
     10          1           0        2.866000   -1.707000    0.647000
     11          1           0        2.185000   -1.928000   -0.962000
     12          6           0        0.830000   -0.941000    0.469000
     13          1           0        0.542000   -1.609000    1.286000
     14          1           0        0.068000   -1.027000   -0.314000
     15         -1           0        3.973383   -0.572348   -0.008268
     16          8           0        5.690661    0.892114    1.297390
     17          1           0        6.392943    0.291834    1.547781
     18          1           0        5.962416    1.739650    1.649618
 ---------------------------------------------------------------------
                    Distance matrix (angstroms):
                    1          2          3          4          5
     1  N    0.000000
     2  H    1.022707   0.000000
     3  C    1.469441   2.030335   0.000000
     4  H    2.119343   2.319227   1.094974   0.000000
     5  H    2.081318   2.911173   1.095274   1.767502   0.000000
     6  C    2.423296   2.719525   1.545368   2.223508   2.181987
     7  H    2.974173   2.899126   2.182838   2.412664   3.035397
     8  H    3.321573   3.760759   2.202989   2.801975   2.389390
     9  C    2.423099   2.719597   2.437000   3.363771   2.961862
    10  H    2.973757   2.899248   3.177035   3.922192   3.902917
    11  H    3.321891   3.761582   3.214868   4.205577   3.449712
    12  C    1.468986   2.030296   2.295223   3.263345   2.674276
    13  H    2.118301   2.319021   3.262539   4.116801   3.714180
    14  H    2.081258   2.911605   2.674347   3.715138   2.593023
    15  X    3.423126   3.342009   2.884899   3.329083   3.657497
    16  O    4.880623   4.365678   4.292668   4.022992   5.238526
    17  H    5.586418   5.031277   5.100423   4.925345   6.049714
    18  H    5.326717   4.758475   4.705525   4.219835   5.639999
                    6          7          8          9         10
     6  C    0.000000
     7  H    1.094728   0.000000
     8  H    1.093668   1.760634   0.000000
     9  C    1.547390   2.189151   2.211687   0.000000
    10  H    2.189057   2.322790   2.940346   1.094255   0.000000
    11  H    2.212049   2.941054   2.388102   1.094514   1.761103
    12  C    2.437656   3.177673   3.215306   1.545886   2.182598
    13  H    3.363467   3.921886   4.204948   2.223350   2.412240
    14  H    2.962773   3.904061   3.450634   2.182829   3.035577
    15  X    1.482710   1.000000   1.986354   1.868801   1.715549
    16  O    3.502723   2.407994   3.965079   4.301342   3.893213
    17  H    4.158084   3.088085   4.582922   4.735310   4.152839
    18  H    4.158084   3.088085   4.608325   5.089703   4.740509
                   11         12         13         14         15
    11  H    0.000000
    12  C    2.204077   0.000000
    13  H    2.802626   1.093918   0.000000
    14  H    2.390271   1.095960   1.767314   0.000000
    15  X    2.438383   3.200710   3.811058   3.943627   0.000000
    16  O    5.034635   5.260472   5.724020   6.155801   2.607381
    17  H    5.378982   5.799136   6.157534   6.723872   3.003726
    18  H    5.877165   5.909436   6.381738   6.801050   3.471336
                   16         17         18
    16  O    0.000000
    17  H    0.957200   0.000000
    18  H    0.957200   1.513901   0.000000
 Stoichiometry    C4H11NO
 Framework group  C1[X(C4H11NO)]
 Deg. of freedom    45
 Full point group                 C1      NOp   1
 Largest Abelian subgroup         C1      NOp   1
 Largest concise Abelian subgroup C1      NOp   1
                         Standard orientation:                         
 ---------------------------------------------------------------------
 Center     Atomic      Atomic             Coordinates (Angstroms)
 Number     Number       Type             X           Y           Z
 ---------------------------------------------------------------------
      1          7           0       -1.387988   -0.876693   -0.707997
      2          1           0       -0.715009   -0.881452   -1.478066
      3          6           0       -0.650720   -1.149637    0.533452
      4          1           0        0.002116   -2.020121    0.410843
      5          1           0       -1.385599   -1.393194    1.308214
      6          6           0        0.106790    0.145922    0.902053
      7          1           0        1.133545    0.107779    0.524233
      8          1           0        0.166972    0.292567    1.984172
      9          6           0       -0.696329    1.263197    0.194159
     10          1           0       -0.072465    1.784835   -0.538017
     11          1           0       -1.072966    2.017084    0.892557
     12          6           0       -1.841968    0.507277   -0.517078
     13          1           0       -2.134590    0.952293   -1.472583
     14          1           0       -2.731978    0.478568    0.121818
     15          8           0        3.392025    0.023877   -0.306831
     16          1           0        3.951568    0.758761   -0.558005
     17          1           0        3.931490   -0.751835   -0.460063
 ---------------------------------------------------------------------
 Rotational constants (GHZ):           4.9001670           1.4496699           1.3410775
 Standard basis: 6-31G(d) (6D, 7F)
 There are   112 symmetry adapted cartesian basis functions of A   symmetry.
 There are   112 symmetry adapted basis functions of A   symmetry.
   112 basis functions,   212 primitive gaussians,   112 cartesian basis functions
    25 alpha electrons       25 beta electrons
       nuclear repulsion energy       246.7129061330 Hartrees.
 NAtoms=   17 NActive=   17 NUniq=   17 SFac= 1.00D+00 NAtFMM=   60 NAOKFM=F Big=F
 Integral buffers will be    131072 words long.
 Raffenetti 1 integral format.
 Two-electron integral symmetry is turned on.
 One-electron integrals computed using PRISM.
 NBasis=   112 RedAO= T EigKep=  3.12D-03  NBF=   112
 NBsUse=   112 1.00D-06 EigRej= -1.00D+00 NBFU=   112
 Initial guess from the checkpoint file:  "PRLD-DON-H31.chk"
 B after Tr=     0.000000   -0.000000   -0.000000
         Rot=    0.999905    0.010164    0.009163    0.001329 Ang=   1.58 deg.
 ExpMin= 1.61D-01 ExpMax= 5.48D+03 ExpMxC= 8.25D+02 IAcc=2 IRadAn=         4 AccDes= 0.00D+00
 Harris functional with IExCor=  205 and IRadAn=       4 diagonalized for initial guess.
 HarFok:  IExCor=  205 AccDes= 0.00D+00 IRadAn=         4 IDoV= 1 UseB2=F ITyADJ=14
 ICtDFT=  3500011 ScaDFX=  1.000000  1.000000  1.000000  1.000000
 FoFCou: FMM=F IPFlag=           0 FMFlag=      100000 FMFlg1=           0
         NFxFlg=           0 DoJE=T BraDBF=F KetDBF=T FulRan=T
         wScrn=  0.000000 ICntrl=       500 IOpCl=  0 I1Cent=   200000004 NGrid=           0
         NMat0=    1 NMatS0=      1 NMatT0=    0 NMatD0=    1 NMtDS0=    0 NMtDT0=    0
 Petite list used in FoFCou.
 Keep R1 ints in memory in canonical form, NReq=20923244.
 Requested convergence on RMS density matrix=1.00D-08 within 128 cycles.
 Requested convergence on MAX density matrix=1.00D-06.
 Requested convergence on             energy=1.00D-06.
 No special actions if energy rises.
 SCF Done:  E(RHF) =  -287.154509893     A.U. after   12 cycles
            NFock= 12  Conv=0.60D-08     -V/T= 2.0018
 Calling FoFJK, ICntrl=      2127 FMM=F ISym2X=0 I1Cent= 0 IOpClX= 0 NMat=1 NMatS=1 NMatT=0.
 ***** Axes restored to original set *****
 -------------------------------------------------------------------
 Center     Atomic                   Forces (Hartrees/Bohr)
 Number     Number              X              Y              Z
 -------------------------------------------------------------------
      1        7           0.014656991   -0.004489240    0.005247852
      2        1          -0.009140661   -0.000028250   -0.013192842
      3        6          -0.003958110    0.005785546    0.000366994
      4        1          -0.002391977   -0.007255661   -0.002823643
      5        1           0.003627329   -0.000096116    0.005365382
      6        6           0.008244998    0.003774094    0.000596128
      7        1          -0.007802071   -0.002261239   -0.005450960
      8        1          -0.002217822   -0.000378827    0.005666647
      9        6           0.000842399   -0.005617431   -0.000467871
     10        1          -0.003189848    0.002566121   -0.004564118
     11        1          -0.000065885    0.003841601    0.005611702
     12        6          -0.006510137   -0.000500219    0.002633446
     13        1           0.001771736    0.004205442   -0.005679364
     14        1           0.004583942   -0.000002241    0.005416461
     15        8           0.013730575    0.003552076    0.009135551
     16        1          -0.008137056    0.005184254   -0.003478248
     17        1          -0.004044403   -0.008279910   -0.004383115
 -------------------------------------------------------------------
 Cartesian Forces:  Max     0.014656991 RMS     0.005698959
 -----------------------------------------------------------------------------------------------
                       Internal Coordinate Forces (Hartree/Bohr or radian)
  Cent   Atom   N1       Length/X         N2         Alpha/Y        N3         Beta/Z          J
 -----------------------------------------------------------------------------------------------
      1  N            0.014657(     1)     -0.004489(    19)      0.005248(    37)
      2  H           -0.009141(     2)     -0.000028(    20)     -0.013193(    38)
      3  C           -0.003958(     3)      0.005786(    21)      0.000367(    39)
      4  H           -0.002392(     4)     -0.007256(    22)     -0.002824(    40)
      5  H            0.003627(     5)     -0.000096(    23)      0.005365(    41)
      6  C            0.008476(     6)      0.003761(    24)      0.000229(    42)
      7  H           -0.006482(     7)     -0.001793(    25)     -0.003812(    43)
      8  H           -0.002218(     8)     -0.000379(    26)      0.005667(    44)
      9  C            0.000841(     9)     -0.005616(    27)     -0.000465(    45)
     10  H           -0.003190(    10)      0.002566(    28)     -0.004564(    46)
     11  H           -0.000066(    11)      0.003842(    29)      0.005612(    47)
     12  C           -0.006510(    12)     -0.000500(    30)      0.002633(    48)
     13  H            0.001772(    13)      0.004205(    31)     -0.005679(    49)
     14  H            0.004584(    14)     -0.000002(    32)      0.005416(    50)
         X        7   0.000000(    15)      6   0.000207(    33)      9  -0.000009(    51)     0
     15  O        7   0.002039(    16)     15   0.000207(    34)      6  -0.000864(    52)     0
     16  H       16  -0.010131(    17)      7  -0.002877(    35)     15   0.000194(    53)     0
     17  H       16  -0.010092(    18)      7  -0.002713(    36)     15  -0.000203(    54)     0
 -----------------------------------------------------------------------------------------------
 Internal  Forces:  Max     0.014656991 RMS     0.005009544

 GradGradGradGradGradGradGradGradGradGradGradGradGradGradGradGradGradGrad
 Berny optimization.
 Search for a local minimum.
 Step number   3 out of a maximum of  100
 All quantities printed in internal units (Hartrees-Bohrs-Radians)
 Update second derivatives using D2CorN and points    3
 DE= -2.13D-03 DEPred=-1.73D-03 R= 1.23D+00
 TightC=F SS=  1.41D+00  RLast= 8.05D-01 DXNew= 8.4853D-01 2.4159D+00
 Trust test= 1.23D+00 RLast= 8.05D-01 DXMaxT set to 8.49D-01
 The second derivative matrix:
                          rAH       dih
           rAH          0.01878
           dih         -0.00258   0.00001
 ITU=  1  1  0
 Linear search step of   1.611 exceeds DXMaxT=   0.849 but not scaled.
 Quartic linear search produced a step of  2.00000.
 Variable       Old X    -DE/DX   Delta X   Delta X   Delta X     New X
                                 (Linear)    (Quad)   (Total)
   rAH        4.55045   0.00204   1.07037   0.00000   1.07037   5.62082
   dih        0.65236  -0.00001   1.20350   0.00000   1.20350   1.85586
         Item               Value     Threshold  Converged?
 Maximum Force            0.002039     0.000450     NO 
 RMS     Force            0.001442     0.000300     NO 
 Maximum Displacement     1.203499     0.001800     NO 
 RMS     Displacement     1.138880     0.001200     NO 
 Predicted change in Energy=-5.276597D-03
 GradGradGradGradGradGradGradGradGradGradGradGradGradGradGradGradGradGrad

 ---------------------------------------------------------------------------------------------------
                            Z-MATRIX (ANGSTROMS AND DEGREES)
   CD    Cent   Atom    N1       Length/X        N2       Alpha/Y        N3        Beta/Z          J
 ---------------------------------------------------------------------------------------------------
      1      1  N        0   0.844000          0.456000          0.923000
      2      2  H        0   1.372000          0.495000          1.798000
      3      3  C        0   1.643000          1.125000         -0.113000
      4      4  H        0   2.000000          2.097000          0.243000
      5      5  H        0   0.987000          1.307000         -0.971000
      6      6  C        0   2.779000          0.153000         -0.504000
      7      7  H        0   3.689000          0.384000          0.059000
      8      8  H        0   3.031000          0.222000         -1.566000
      9      9  C        0   2.231000         -1.240000         -0.112000
     10     10  H        0   2.866000         -1.707000          0.647000
     11     11  H        0   2.185000         -1.928000         -0.962000
     12     12  C        0   0.830000         -0.941000          0.469000
     13     13  H        0   0.542000         -1.609000          1.286000
     14     14  H        0   0.068000         -1.027000         -0.314000
     15         X        7   1.000000(    14)      6   90.000(    30)      9  106.333(    45)      0
     16     15  O        7   2.974409(    15)     15   90.000(    31)      6  180.000(    46)      0
     17     16  H       16   0.957200(    16)      7  127.740(    32)     15    0.000(    47)      0
     18     17  H       16   0.957200(    17)      7  127.740(    33)     15  180.000(    48)      0
 ---------------------------------------------------------------------------------------------------
                         Z-Matrix orientation:                         
 ---------------------------------------------------------------------
 Center     Atomic      Atomic             Coordinates (Angstroms)
 Number     Number       Type             X           Y           Z
 ---------------------------------------------------------------------
      1          7           0        0.844000    0.456000    0.923000
      2          1           0        1.372000    0.495000    1.798000
      3          6           0        1.643000    1.125000   -0.113000
      4          1           0        2.000000    2.097000    0.243000
      5          1           0        0.987000    1.307000   -0.971000
      6          6           0        2.779000    0.153000   -0.504000
      7          1           0        3.689000    0.384000    0.059000
      8          1           0        3.031000    0.222000   -1.566000
      9          6           0        2.231000   -1.240000   -0.112000
     10          1           0        2.866000   -1.707000    0.647000
     11          1           0        2.185000   -1.928000   -0.962000
     12          6           0        0.830000   -0.941000    0.469000
     13          1           0        0.542000   -1.609000    1.286000
     14          1           0        0.068000   -1.027000   -0.314000
     15         -1           0        4.236901    0.229266   -0.763108
     16          8           0        6.161496    1.011634    1.588688
     17          1           0        7.063249    1.018136    1.267702
     18          1           0        6.233780    1.252387    2.512292
 ---------------------------------------------------------------------
                    Distance matrix (angstroms):
                    1          2          3          4          5
     1  N    0.000000
     2  H    1.022707   0.000000
     3  C    1.469441   2.030335   0.000000
     4  H    2.119343   2.319227   1.094974   0.000000
     5  H    2.081318   2.911173   1.095274   1.767502   0.000000
     6  C    2.423296   2.719525   1.545368   2.223508   2.181987
     7  H    2.974173   2.899126   2.182838   2.412664   3.035397
     8  H    3.321573   3.760759   2.202989   2.801975   2.389390
     9  C    2.423099   2.719597   2.437000   3.363771   2.961862
    10  H    2.973757   2.899248   3.177035   3.922192   3.902917
    11  H    3.321891   3.761582   3.214868   4.205577   3.449712
    12  C    1.468986   2.030296   2.295223   3.263345   2.674276
    13  H    2.118301   2.319021   3.262539   4.116801   3.714180
    14  H    2.081258   2.911605   2.674347   3.715138   2.593023
    15  X    3.795543   3.851954   2.820160   3.082922   3.430246
    16  O    5.387730   4.821825   4.829638   4.506323   5.780541
    17  H    6.254108   5.739791   5.594359   5.277353   6.481977
    18  H    5.675369   4.971997   5.289957   4.877289   6.298016
                    6          7          8          9         10
     6  C    0.000000
     7  H    1.094728   0.000000
     8  H    1.093668   1.760634   0.000000
     9  C    1.547390   2.189151   2.211687   0.000000
    10  H    2.189057   2.322790   2.940346   1.094255   0.000000
    11  H    2.212049   2.941054   2.388102   1.094514   1.761103
    12  C    2.437656   3.177673   3.215306   1.545886   2.182598
    13  H    3.363467   3.921886   4.204948   2.223350   2.412240
    14  H    2.962773   3.904061   3.450634   2.182829   3.035577
    15  X    1.482710   1.000000   1.448754   2.570277   2.759874
    16  O    4.069137   2.974409   4.513932   4.838491   4.374705
    17  H    4.716161   3.639869   4.992267   5.509391   5.042671
    18  H    4.716161   3.639869   5.286962   5.396402   4.855845
                   11         12         13         14         15
    11  H    0.000000
    12  C    2.204077   0.000000
    13  H    2.802626   1.093918   0.000000
    14  H    2.390271   1.095960   1.767314   0.000000
    15  X    2.983899   3.807176   4.607642   4.377173   0.000000
    16  O    5.564169   5.787170   6.207905   6.701264   3.138010
    17  H    6.119526   6.582517   7.030566   7.457739   3.568577
    18  H    6.211134   6.179550   6.487503   7.155444   3.970207
                   16         17         18
    16  O    0.000000
    17  H    0.957200   0.000000
    18  H    0.957200   1.513901   0.000000
 Stoichiometry    C4H11NO
 Framework group  C1[X(C4H11NO)]
 Deg. of freedom    45
 Full point group                 C1      NOp   1
 Largest Abelian subgroup         C1      NOp   1
 Largest concise Abelian subgroup C1      NOp   1
                         Standard orientation:                         
 ---------------------------------------------------------------------
 Center     Atomic      Atomic             Coordinates (Angstroms)
 Number     Number       Type             X           Y           Z
 ---------------------------------------------------------------------
      1          7           0       -1.457828   -0.905000   -0.705387
      2          1           0       -0.748779   -0.935843   -1.441748
      3          6           0       -0.779933   -1.126708    0.579356
      4          1           0       -0.119289   -1.998012    0.521502
      5          1           0       -1.550267   -1.344121    1.326980
      6          6           0       -0.044934    0.185697    0.933661
      7          1           0        0.998829    0.138213    0.606959
      8          1           0       -0.037027    0.373847    2.010993
      9          6           0       -0.816735    1.271158    0.145933
     10          1           0       -0.160187    1.767526   -0.575148
     11          1           0       -1.228674    2.049298    0.796137
     12          6           0       -1.924702    0.482997   -0.589577
     13          1           0       -2.172669    0.889758   -1.574317
     14          1           0       -2.844155    0.474321    0.006796
     15          8           0        3.834763    0.009198   -0.280699
     16          1           0        4.609812    0.320221    0.187057
     17          1           0        4.176927   -0.352650   -1.098147
 ---------------------------------------------------------------------
 Rotational constants (GHZ):           4.8030659           1.1957454           1.1304449
 Standard basis: 6-31G(d) (6D, 7F)
 There are   112 symmetry adapted cartesian basis functions of A   symmetry.
 There are   112 symmetry adapted basis functions of A   symmetry.
   112 basis functions,   212 primitive gaussians,   112 cartesian basis functions
    25 alpha electrons       25 beta electrons
       nuclear repulsion energy       241.4796038258 Hartrees.
 NAtoms=   17 NActive=   17 NUniq=   17 SFac= 1.00D+00 NAtFMM=   60 NAOKFM=F Big=F
 Integral buffers will be    131072 words long.
 Raffenetti 1 integral format.
 Two-electron integral symmetry is turned on.
 One-electron integrals computed using PRISM.
 NBasis=   112 RedAO= T EigKep=  3.15D-03  NBF=   112
 NBsUse=   112 1.00D-06 EigRej= -1.00D+00 NBFU=   112
 Initial guess from the checkpoint file:  "PRLD-DON-H31.chk"
 B after Tr=    -0.000000   -0.000000    0.000000
         Rot=    0.999844    0.012146    0.012825    0.000584 Ang=   2.03 deg.
 ExpMin= 1.61D-01 ExpMax= 5.48D+03 ExpMxC= 8.25D+02 IAcc=2 IRadAn=         4 AccDes= 0.00D+00
 Harris functional with IExCor=  205 and IRadAn=       4 diagonalized for initial guess.
 HarFok:  IExCor=  205 AccDes= 0.00D+00 IRadAn=         4 IDoV= 1 UseB2=F ITyADJ=14
 ICtDFT=  3500011 ScaDFX=  1.000000  1.000000  1.000000  1.000000
 FoFCou: FMM=F IPFlag=           0 FMFlag=      100000 FMFlg1=           0
         NFxFlg=           0 DoJE=T BraDBF=F KetDBF=T FulRan=T
         wScrn=  0.000000 ICntrl=       500 IOpCl=  0 I1Cent=   200000004 NGrid=           0
         NMat0=    1 NMatS0=      1 NMatT0=    0 NMatD0=    1 NMtDS0=    0 NMtDT0=    0
 Petite list used in FoFCou.
 Keep R1 ints in memory in canonical form, NReq=20921757.
 Requested convergence on RMS density matrix=1.00D-08 within 128 cycles.
 Requested convergence on MAX density matrix=1.00D-06.
 Requested convergence on             energy=1.00D-06.
 No special actions if energy rises.
 SCF Done:  E(RHF) =  -287.155089866     A.U. after   13 cycles
            NFock= 13  Conv=0.54D-08     -V/T= 2.0018
 Calling FoFJK, ICntrl=      2127 FMM=F ISym2X=0 I1Cent= 0 IOpClX= 0 NMat=1 NMatS=1 NMatT=0.
 ***** Axes restored to original set *****
 -------------------------------------------------------------------
 Center     Atomic                   Forces (Hartrees/Bohr)
 Number     Number              X              Y              Z
 -------------------------------------------------------------------
      1        7           0.014998138   -0.004592708    0.005016157
      2        1          -0.009301297    0.000040344   -0.013101202
      3        6          -0.003980703    0.006418731    0.000957209
      4        1          -0.002394833   -0.007373659   -0.002958276
      5        1           0.003858744   -0.000312944    0.005312669
      6        6           0.006984190    0.003374411   -0.000229733
      7        1          -0.005783397   -0.001706309   -0.004193784
      8        1          -0.001835081   -0.000273042    0.006053404
      9        6           0.001171811   -0.005948011   -0.000037406
     10        1          -0.003244789    0.002579836   -0.004768523
     11        1           0.000044159    0.004026029    0.005626019
     12        6          -0.006733037   -0.000423839    0.002562124
     13        1           0.001864339    0.004208568   -0.005753076
     14        1           0.004602015    0.000006992    0.005461110
     15        8           0.012128160    0.003096823    0.007898849
     16        1          -0.010276811   -0.000476999    0.001993728
     17        1          -0.002101607   -0.002644223   -0.009839267
 -------------------------------------------------------------------
 Cartesian Forces:  Max     0.014998138 RMS     0.005553049
 -----------------------------------------------------------------------------------------------
                       Internal Coordinate Forces (Hartree/Bohr or radian)
  Cent   Atom   N1       Length/X         N2         Alpha/Y        N3         Beta/Z          J
 -----------------------------------------------------------------------------------------------
      1  N            0.014998(     1)     -0.004593(    19)      0.005016(    37)
      2  H           -0.009301(     2)      0.000040(    20)     -0.013101(    38)
      3  C           -0.003981(     3)      0.006419(    21)      0.000957(    39)
      4  H           -0.002395(     4)     -0.007374(    22)     -0.002958(    40)
      5  H            0.003859(     5)     -0.000313(    23)      0.005313(    41)
      6  C            0.007121(     6)      0.003330(    24)     -0.000433(    42)
      7  H           -0.006162(     7)     -0.001693(    25)     -0.003949(    43)
      8  H           -0.001835(     8)     -0.000273(    26)      0.006053(    44)
      9  C            0.001163(     9)     -0.005941(    27)     -0.000026(    45)
     10  H           -0.003245(    10)      0.002580(    28)     -0.004769(    46)
     11  H            0.000044(    11)      0.004026(    29)      0.005626(    47)
     12  C           -0.006733(    12)     -0.000424(    30)      0.002562(    48)
     13  H            0.001864(    13)      0.004209(    31)     -0.005753(    49)
     14  H            0.004602(    14)      0.000007(    32)      0.005461(    50)
         X        7  -0.000000(    15)      6   0.000467(    33)      9  -0.000044(    51)     0
     15  O        7  -0.000186(    16)     15   0.000467(    34)      6  -0.000000(    52)     0
     16  H       16  -0.010353(    17)      7  -0.002930(    35)     15   0.000025(    53)     0
     17  H       16  -0.010318(    18)      7  -0.002401(    36)     15  -0.000069(    54)     0
 -----------------------------------------------------------------------------------------------
 Internal  Forces:  Max     0.014998138 RMS     0.005033529

 GradGradGradGradGradGradGradGradGradGradGradGradGradGradGradGradGradGrad
 Berny optimization.
 Search for a local minimum.
 Step number   4 out of a maximum of  100
 All quantities printed in internal units (Hartrees-Bohrs-Radians)
 Update second derivatives using D2CorN and points    4
 The second derivative matrix:
                          rAH       dih
           rAH          0.01878
           dih         -0.00258   0.00001
 ITU=  0  1  1
     Eigenvalues ---   -0.00033   0.01913
 RFO step:  Lambda=-4.24482911D-04 EMin=-3.34783881D-04
 Quartic linear search produced a step of -0.27878.
 Maximum step size (   0.849) exceeded in Quadratic search.
    -- Step size scaled by   0.848
 Variable       Old X    -DE/DX   Delta X   Delta X   Delta X     New X
                                 (Linear)    (Quad)   (Total)
   rAH        5.62082  -0.00019  -0.29840  -0.10096  -0.39935   5.22147
   dih        1.85586  -0.00004  -0.33551  -0.84250  -1.17801   0.67785
         Item               Value     Threshold  Converged?
 Maximum Force            0.000186     0.000450     YES
 RMS     Force            0.000135     0.000300     YES
 Maximum Displacement     1.178010     0.001800     NO 
 RMS     Displacement     0.879542     0.001200     NO 
 Predicted change in Energy=-1.681629D-04
 GradGradGradGradGradGradGradGradGradGradGradGradGradGradGradGradGradGrad

 ---------------------------------------------------------------------------------------------------
                            Z-MATRIX (ANGSTROMS AND DEGREES)
   CD    Cent   Atom    N1       Length/X        N2       Alpha/Y        N3        Beta/Z          J
 ---------------------------------------------------------------------------------------------------
      1      1  N        0   0.844000          0.456000          0.923000
      2      2  H        0   1.372000          0.495000          1.798000
      3      3  C        0   1.643000          1.125000         -0.113000
      4      4  H        0   2.000000          2.097000          0.243000
      5      5  H        0   0.987000          1.307000         -0.971000
      6      6  C        0   2.779000          0.153000         -0.504000
      7      7  H        0   3.689000          0.384000          0.059000
      8      8  H        0   3.031000          0.222000         -1.566000
      9      9  C        0   2.231000         -1.240000         -0.112000
     10     10  H        0   2.866000         -1.707000          0.647000
     11     11  H        0   2.185000         -1.928000         -0.962000
     12     12  C        0   0.830000         -0.941000          0.469000
     13     13  H        0   0.542000         -1.609000          1.286000
     14     14  H        0   0.068000         -1.027000         -0.314000
     15         X        7   1.000000(    14)      6   90.000(    30)      9   38.838(    45)      0
     16     15  O        7   2.763081(    15)     15   90.000(    31)      6  180.000(    46)      0
     17     16  H       16   0.957200(    16)      7  127.740(    32)     15    0.000(    47)      0
     18     17  H       16   0.957200(    17)      7  127.740(    33)     15  180.000(    48)      0
 ---------------------------------------------------------------------------------------------------
                         Z-Matrix orientation:                         
 ---------------------------------------------------------------------
 Center     Atomic      Atomic             Coordinates (Angstroms)
 Number     Number       Type             X           Y           Z
 ---------------------------------------------------------------------
      1          7           0        0.844000    0.456000    0.923000
      2          1           0        1.372000    0.495000    1.798000
      3          6           0        1.643000    1.125000   -0.113000
      4          1           0        2.000000    2.097000    0.243000
      5          1           0        0.987000    1.307000   -0.971000
      6          6           0        2.779000    0.153000   -0.504000
      7          1           0        3.689000    0.384000    0.059000
      8          1           0        3.031000    0.222000   -1.566000
      9          6           0        2.231000   -1.240000   -0.112000
     10          1           0        2.866000   -1.707000    0.647000
     11          1           0        2.185000   -1.928000   -0.962000
     12          6           0        0.830000   -0.941000    0.469000
[...]
         Item               Value     Threshold  Converged?
 Maximum Force            0.000004     0.000450     YES
 RMS     Force            0.000003     0.000300     YES
 Maximum Displacement     0.004163     0.001800     NO 
 RMS     Displacement     0.003232     0.001200     NO 
 Predicted change in Energy=-8.676556D-09
 Optimization completed on the basis of negligible forces.
    -- Stationary point found.
                       ----------------------------
                       !   Optimized Parameters   !
                       ! (Angstroms and Degrees)  !
 ----------------------                            ----------------------
 !      Name          Value   Derivative information (Atomic Units)     !
 ------------------------------------------------------------------------
 !       rAH         2.8572   -DE/DX =    0.0                           !
 !       dih        35.8593   -DE/DX =    0.0                           !
 ------------------------------------------------------------------------
 GradGradGradGradGradGradGradGradGradGradGradGradGradGradGradGradGradGrad

 ---------------------------------------------------------------------------------------------------
                            Z-MATRIX (ANGSTROMS AND DEGREES)
   CD    Cent   Atom    N1       Length/X        N2       Alpha/Y        N3        Beta/Z          J
 ---------------------------------------------------------------------------------------------------
      1      1  N        0   0.844000          0.456000          0.923000
      2      2  H        0   1.372000          0.495000          1.798000
      3      3  C        0   1.643000          1.125000         -0.113000
      4      4  H        0   2.000000          2.097000          0.243000
      5      5  H        0   0.987000          1.307000         -0.971000
      6      6  C        0   2.779000          0.153000         -0.504000
      7      7  H        0   3.689000          0.384000          0.059000
      8      8  H        0   3.031000          0.222000         -1.566000
      9      9  C        0   2.231000         -1.240000         -0.112000
     10     10  H        0   2.866000         -1.707000          0.647000
     11     11  H        0   2.185000         -1.928000         -0.962000
     12     12  C        0   0.830000         -0.941000          0.469000
     13     13  H        0   0.542000         -1.609000          1.286000
     14     14  H        0   0.068000         -1.027000         -0.314000
     15         X        7   1.000000(    14)      6   90.000(    30)      9   35.859(    45)      0
     16     15  O        7   2.857162(    15)     15   90.000(    31)      6  180.000(    46)      0
     17     16  H       16   0.957200(    16)      7  127.740(    32)     15    0.000(    47)      0
     18     17  H       16   0.957200(    17)      7  127.740(    33)     15  180.000(    48)      0
 ---------------------------------------------------------------------------------------------------
                         Z-Matrix orientation:                         
 ---------------------------------------------------------------------
 Center     Atomic      Atomic             Coordinates (Angstroms)
 Number     Number       Type             X           Y           Z
 ---------------------------------------------------------------------
      1          7           0        0.844000    0.456000    0.923000
      2          1           0        1.372000    0.495000    1.798000
      3          6           0        1.643000    1.125000   -0.113000
      4          1           0        2.000000    2.097000    0.243000
      5          1           0        0.987000    1.307000   -0.971000
      6          6           0        2.779000    0.153000   -0.504000
      7          1           0        3.689000    0.384000    0.059000
      8          1           0        3.031000    0.222000   -1.566000
      9          6           0        2.231000   -1.240000   -0.112000
     10          1           0        2.866000   -1.707000    0.647000
     11          1           0        2.185000   -1.928000   -0.962000
     12          6           0        0.830000   -0.941000    0.469000
     13          1           0        0.542000   -1.609000    1.286000
     14          1           0        0.068000   -1.027000   -0.314000
     15         -1           0        3.960626   -0.577369    0.014411
     16          8           0        6.064035    0.986894    1.528390
     17          1           0        6.756661    0.382812    1.795948
     18          1           0        6.345445    1.838230    1.863451
 ---------------------------------------------------------------------
                    Distance matrix (angstroms):
                    1          2          3          4          5
     1  N    0.000000
     2  H    1.022707   0.000000
     3  C    1.469441   2.030335   0.000000
     4  H    2.119343   2.319227   1.094974   0.000000
     5  H    2.081318   2.911173   1.095274   1.767502   0.000000
     6  C    2.423296   2.719525   1.545368   2.223508   2.181987
     7  H    2.974173   2.899126   2.182838   2.412664   3.035397
     8  H    3.321573   3.760759   2.202989   2.801975   2.389390
     9  C    2.423099   2.719597   2.437000   3.363771   2.961862
    10  H    2.973757   2.899248   3.177035   3.922192   3.902917
    11  H    3.321891   3.761582   3.214868   4.205577   3.449712
    12  C    1.468986   2.030296   2.295223   3.263345   2.674276
    13  H    2.118301   2.319021   3.262539   4.116801   3.714180
    14  H    2.081258   2.911605   2.674347   3.715138   2.593023
    15  X    3.406867   3.321468   2.878487   3.323937   3.655726
    16  O    5.281771   4.725446   4.717921   4.404650   5.667954
    17  H    5.977202   5.385830   5.508579   5.289225   6.465223
    18  H    5.749862   5.152059   5.150539   4.644967   6.085167
                    6          7          8          9         10
     6  C    0.000000
     7  H    1.094728   0.000000
     8  H    1.093668   1.760634   0.000000
     9  C    1.547390   2.189151   2.211687   0.000000
    10  H    2.189057   2.322790   2.940346   1.094255   0.000000
    11  H    2.212049   2.941054   2.388102   1.094514   1.761103
    12  C    2.437656   3.177673   3.215306   1.545886   2.182598
    13  H    3.363467   3.921886   4.204948   2.223350   2.412240
    14  H    2.962773   3.904061   3.450634   2.182829   3.035577
    15  X    1.482710   1.000000   2.000224   1.856520   1.695417
    16  O    3.951891   2.857162   4.399956   4.726742   4.273328
    17  H    4.600473   3.525270   5.020866   5.172561   4.563402
    18  H    4.600473   3.525270   5.035760   5.505140   5.114191
                   11         12         13         14         15
    11  H    0.000000
    12  C    2.204077   0.000000
    13  H    2.802626   1.093918   0.000000
    14  H    2.390271   1.095960   1.767314   0.000000
    15  X    2.435247   3.184289   3.790541   3.932246   0.000000
    16  O    5.453949   5.677517   6.106577   6.588065   3.027107
    17  H    5.817750   6.215993   6.545943   7.153854   3.451613
    18  H    6.283070   6.331568   6.774719   7.235825   3.865415
                   16         17         18
    16  O    0.000000
    17  H    0.957200   0.000000
    18  H    0.957200   1.513901   0.000000
 Stoichiometry    C4H11NO
 Framework group  C1[X(C4H11NO)]
 Deg. of freedom    45
 Full point group                 C1      NOp   1
 Largest Abelian subgroup         C1      NOp   1
 Largest concise Abelian subgroup C1      NOp   1
                         Standard orientation:                         
 ---------------------------------------------------------------------
 Center     Atomic      Atomic             Coordinates (Angstroms)
 Number     Number       Type             X           Y           Z
 ---------------------------------------------------------------------
      1          7           0       -1.441165   -0.877751   -0.735887
      2          1           0       -0.737816   -0.880014   -1.478332
      3          6           0       -0.753461   -1.149078    0.534035
      4          1           0       -0.093525   -2.017472    0.437364
      5          1           0       -1.518076   -1.395323    1.278583
      6          6           0       -0.015390    0.148621    0.933271
      7          1           0        1.025813    0.113857    0.596943
      8          1           0        0.000864    0.294870    2.016994
      9          6           0       -0.792930    1.263785    0.194179
     10          1           0       -0.141814    1.787744   -0.512157
     11          1           0       -1.199633    2.016129    0.877210
     12          6           0       -1.906747    0.504705   -0.562770
     13          1           0       -2.162175    0.949327   -1.529065
     14          1           0       -2.821584    0.472900    0.039883
     15          8           0        3.743280    0.023125   -0.280851
     16          1           0        4.303968    0.758470   -0.528095
     17          1           0        4.297065   -0.749429   -0.393603
 ---------------------------------------------------------------------
 Rotational constants (GHZ):           4.8171284           1.2451726           1.1689326

 **********************************************************************

            Population analysis using the SCF density.

 **********************************************************************

 Orbital symmetries:
       Occupied  (A) (A) (A) (A) (A) (A) (A) (A) (A) (A) (A) (A)
                 (A) (A) (A) (A) (A) (A) (A) (A) (A) (A) (A) (A)
                 (A)
       Virtual   (A) (A) (A) (A) (A) (A) (A) (A) (A) (A) (A) (A)
                 (A) (A) (A) (A) (A) (A) (A) (A) (A) (A) (A) (A)
                 (A) (A) (A) (A) (A) (A) (A) (A) (A) (A) (A) (A)
                 (A) (A) (A) (A) (A) (A) (A) (A) (A) (A) (A) (A)
                 (A) (A) (A) (A) (A) (A) (A) (A) (A) (A) (A) (A)
                 (A) (A) (A) (A) (A) (A) (A) (A) (A) (A) (A) (A)
                 (A) (A) (A) (A) (A) (A) (A) (A) (A) (A) (A) (A)
                 (A) (A) (A)
 The electronic state is 1-A.
 Alpha  occ. eigenvalues --  -20.56894 -15.53154 -11.23342 -11.23148 -11.20777
 Alpha  occ. eigenvalues --  -11.20284  -1.34984  -1.20685  -1.00742  -0.95863
 Alpha  occ. eigenvalues --   -0.80412  -0.77174  -0.71498  -0.66516  -0.62596
 Alpha  occ. eigenvalues --   -0.58317  -0.57622  -0.57154  -0.50620  -0.49669
 Alpha  occ. eigenvalues --   -0.48279  -0.46836  -0.46454  -0.44435  -0.36329
 Alpha virt. eigenvalues --    0.19823   0.22839   0.25841   0.29667   0.29942
 Alpha virt. eigenvalues --    0.30633   0.31039   0.33452   0.34810   0.35719
 Alpha virt. eigenvalues --    0.37624   0.38762   0.42276   0.42720   0.49673
 Alpha virt. eigenvalues --    0.53475   0.73867   0.77395   0.77566   0.80812
 Alpha virt. eigenvalues --    0.81529   0.84787   0.91471   0.93174   0.93590
 Alpha virt. eigenvalues --    0.96068   1.01453   1.02748   1.03548   1.06746
 Alpha virt. eigenvalues --    1.10488   1.11950   1.13749   1.15045   1.15622
 Alpha virt. eigenvalues --    1.16129   1.18235   1.19749   1.20587   1.21972
 Alpha virt. eigenvalues --    1.24058   1.24644   1.24975   1.37295   1.38120
 Alpha virt. eigenvalues --    1.43113   1.50751   1.54779   1.60386   1.61133
 Alpha virt. eigenvalues --    1.70295   1.92142   2.01730   2.02551   2.03932
 Alpha virt. eigenvalues --    2.05929   2.09816   2.13392   2.14613   2.20954
 Alpha virt. eigenvalues --    2.23799   2.30155   2.32977   2.36094   2.43369
 Alpha virt. eigenvalues --    2.44339   2.44444   2.52143   2.58347   2.60296
 Alpha virt. eigenvalues --    2.61824   2.72621   2.74618   2.82714   2.91271
 Alpha virt. eigenvalues --    2.93906   2.96569   2.98817   3.00086   3.03925
 Alpha virt. eigenvalues --    3.25110   3.99217   4.35961   4.62912   4.69586
 Alpha virt. eigenvalues --    4.87291   5.06412
          Condensed to atoms (all electrons):
               1          2          3          4          5          6
     1  N    7.062805   0.327593   0.293211  -0.033339  -0.048014  -0.084049
     2  H    0.327593   0.432043  -0.042273  -0.005404   0.005719  -0.000600
     3  C    0.293211  -0.042273   4.976113   0.403572   0.405313   0.333330
     4  H   -0.033339  -0.005404   0.403572   0.524179  -0.027142  -0.035308
     5  H   -0.048014   0.005719   0.405313  -0.027142   0.553319  -0.054156
     6  C   -0.084049  -0.000600   0.333330  -0.035308  -0.054156   5.228950
     7  H    0.002361   0.000883  -0.034978  -0.003755   0.003488   0.394923
     8  H    0.004464  -0.000028  -0.033730   0.001353  -0.002524   0.390038
     9  C   -0.085501  -0.000679  -0.061346   0.003850  -0.000302   0.319680
    10  H    0.002651   0.000941   0.003219  -0.000162  -0.000013  -0.038353
    11  H    0.004425  -0.000028   0.003048  -0.000064   0.000163  -0.033427
    12  C    0.295023  -0.042195  -0.095450   0.006145  -0.001926  -0.060574
    13  H   -0.033620  -0.005410   0.006196  -0.000115  -0.000176   0.003792
    14  H   -0.047884   0.005702  -0.001950  -0.000172   0.003499  -0.000374
    15  O   -0.000000   0.000001   0.000016   0.000002  -0.000000  -0.001436
    16  H    0.000000   0.000000  -0.000001  -0.000000   0.000000   0.000063
    17  H    0.000000   0.000000  -0.000002   0.000000   0.000000   0.000062
               7          8          9         10         11         12
     1  N    0.002361   0.004464  -0.085501   0.002651   0.004425   0.295023
     2  H    0.000883  -0.000028  -0.000679   0.000941  -0.000028  -0.042195
     3  C   -0.034978  -0.033730  -0.061346   0.003219   0.003048  -0.095450
     4  H   -0.003755   0.001353   0.003850  -0.000162  -0.000064   0.006145
     5  H    0.003488  -0.002524  -0.000302  -0.000013   0.000163  -0.001926
     6  C    0.394923   0.390038   0.319680  -0.038353  -0.033427  -0.060574
     7  H    0.487799  -0.023330  -0.035196  -0.005504   0.002346   0.002877
     8  H   -0.023330   0.536254  -0.034655   0.002614  -0.003758   0.003109
     9  C   -0.035196  -0.034655   5.204000   0.396086   0.390728   0.334537
    10  H   -0.005504   0.002614   0.396086   0.542745  -0.026453  -0.038267
    11  H    0.002346  -0.003758   0.390728  -0.026453   0.535158  -0.032865
    12  C    0.002877   0.003109   0.334537  -0.038267  -0.032865   4.975659
    13  H   -0.000146  -0.000066  -0.035520  -0.004230   0.001379   0.403253
    14  H   -0.000009   0.000166  -0.053879   0.003860  -0.002579   0.405527
    15  O    0.006306   0.000004   0.000016   0.000007  -0.000000  -0.000000
    16  H   -0.000190  -0.000001  -0.000003   0.000000   0.000000   0.000000
    17  H   -0.000188  -0.000001  -0.000001  -0.000000   0.000000   0.000000
              13         14         15         16         17
     1  N   -0.033620  -0.047884  -0.000000   0.000000   0.000000
     2  H   -0.005410   0.005702   0.000001   0.000000   0.000000
     3  C    0.006196  -0.001950   0.000016  -0.000001  -0.000002
     4  H   -0.000115  -0.000172   0.000002  -0.000000   0.000000
     5  H   -0.000176   0.003499  -0.000000   0.000000   0.000000
     6  C    0.003792  -0.000374  -0.001436   0.000063   0.000062
     7  H   -0.000146  -0.000009   0.006306  -0.000190  -0.000188
     8  H   -0.000066   0.000166   0.000004  -0.000001  -0.000001
     9  C   -0.035520  -0.053879   0.000016  -0.000003  -0.000001
    10  H   -0.004230   0.003860   0.000007   0.000000  -0.000000
    11  H    0.001379  -0.002579  -0.000000   0.000000   0.000000
    12  C    0.403253   0.405527  -0.000000   0.000000   0.000000
    13  H    0.526734  -0.026975   0.000000  -0.000000  -0.000000
    14  H   -0.026975   0.550373  -0.000000  -0.000000  -0.000000
    15  O    0.000000  -0.000000   8.331114   0.264971   0.264911
    16  H   -0.000000  -0.000000   0.264971   0.317430  -0.018275
    17  H   -0.000000  -0.000000   0.264911  -0.018275   0.317575
 Mulliken charges:
               1
     1  N   -0.660124
     2  H    0.323737
     3  C   -0.154289
     4  H    0.166361
     5  H    0.162752
     6  C   -0.362564
     7  H    0.202312
     8  H    0.160088
     9  C   -0.341816
    10  H    0.160859
    11  H    0.161928
    12  C   -0.154851
    13  H    0.164903
    14  H    0.164695
    15  O   -0.865913
    16  H    0.436004
    17  H    0.435917
 Sum of Mulliken charges =  -0.00000
 Mulliken charges with hydrogens summed into heavy atoms:
               1
     1  N   -0.336388
     3  C    0.174825
     6  C   -0.000164
     9  C   -0.019029
    12  C    0.174747
    15  O    0.006008
 Electronic spatial extent (au):  <R**2>=           1066.2863
 Charge=             -0.0000 electrons
 Dipole moment (field-independent basis, Debye):
    X=              3.6421    Y=              0.9092    Z=             -0.4664  Tot=              3.7827
 Quadrupole moment (field-independent basis, Debye-Ang):
   XX=            -25.1294   YY=            -38.7394   ZZ=            -38.2562
   XY=             -3.9378   XZ=             -5.9420   YZ=             -1.6680
 Traceless Quadrupole moment (field-independent basis, Debye-Ang):
   XX=              8.9122   YY=             -4.6977   ZZ=             -4.2145
   XY=             -3.9378   XZ=             -5.9420   YZ=             -1.6680
 Octapole moment (field-independent basis, Debye-Ang**2):
  XXX=            128.9078  YYY=              0.1769  ZZZ=             -5.3657  XYY=             22.0792
  XXY=              6.4564  XXZ=            -14.7891  XZZ=              6.8510  YZZ=              0.8446
  YYZ=             -0.3807  XYZ=              2.6603
 Hexadecapole moment (field-independent basis, Debye-Ang**3):
 XXXX=           -378.3803 YYYY=           -238.1116 ZZZZ=           -150.4757 XXXY=            -17.5558
 XXXZ=           -107.9336 YYYX=             -6.9468 YYYZ=             -2.3445 ZZZX=             -6.2164
 ZZZY=              0.5627 XXYY=           -156.8387 XXZZ=           -177.1876 YYZZ=            -65.4514
 XXYZ=            -12.8937 YYXZ=            -12.9429 ZZXY=             -2.6330
 N-N= 2.424637069826D+02 E-N=-1.157807406469D+03  KE= 2.866452978879D+02
 1\1\GINC-C401-072\FOpt\RHF\6-31G(d)\C4H11N1O1\TG455515\31-Mar-2021\1\\
 # HF/6-31G* Opt=(Z-matrix,MaxCycles=100) Geom=PrintInputOrient\\<qmtoo
 l> simtype="Geometry optimization" </qmtool> PRLD-DON-H31\\0,1\N,0,0.8
 439999819,0.4560000002,0.9229999781\H,0,1.371999979,0.4950000048,1.797
 9999781\C,0,1.6430000067,1.125,-0.112999998\H,0,2.,2.0969998837,0.2430
 000007\H,0,0.9869999886,1.307000041,-0.9710000157\C,0,2.7790000439,0.1
 529999971,-0.5040000081\H,0,3.6889998913,0.3840000033,0.0590000004\H,0
 ,3.0309998989,0.2220000029,-1.5659999847\C,0,2.2309999466,-1.240000009
 5,-0.1120000035\H,0,2.8659999371,-1.7070000172,0.6470000148\H,0,2.1849
 999428,-1.9279999733,-0.9620000124\C,0,0.8299999833,-0.9409999847,0.46
 90000117\H,0,0.5419999957,-1.6089999676,1.2860000134\H,0,0.0680000037,
 -1.0269999504,-0.3140000105\X,7,1.,6,90.,9,dih,0\O,7,rAH,15,90.,6,180.
 ,0\H,16,0.9572,7,127.74,15,0.,0\H,16,0.9572,7,127.74,15,180.,0\\rAH=2.
 85716241\dih=35.85934526\\Version=ES64L-G16RevA.03\State=1-A\HF=-287.1
 551757\RMSD=8.972e-09\RMSF=5.566e-03\Dipole=1.41798,-0.0146525,0.45158
 7\Quadrupole=2.2979048,-1.4219236,-0.8759812,3.9754603,6.460734,1.0028
 727\PG=C01 [X(C4H11N1O1)]\\@


      THE ONE-EYED VIEW OF OUR UNIVERSE SAYS YOU MUST NOT LOOK
      FAR AFIELD FOR PROBLEMS.  SUCH PROBLEMS MAY NEVER ARRIVE. 
      INSTEAD, TEND TO THE WOLF WITHIN YOUR FENCES.
      THE PACKS RANGING OUTSIDE MAY NOT EVEN EXIST.

                              -- THE AZHAR BOOK SHAMRA I:4
                                 CHILDREN OF DUNE, BY FRANK HERBERT
 Job cpu time:       0 days  0 hours  5 minutes 19.5 seconds.
 Elapsed time:       0 days  0 hours  5 minutes 13.6 seconds.
 File lengths (MBytes):  RWF=     10 Int=      0 D2E=      0 Chk=      2 Scr=      1
 Normal termination of Gaussian 16 at Wed Mar 31 17:12:39 2021.
