 Entering Gaussian System, Link 0=g16
 Initial command:
 /home1/apps/gaussian/16rA.03/g16/l1.exe "/tmp/Gau-174993.inp" -scrdir="/tmp/"
 Entering Link 1 = /home1/apps/gaussian/16rA.03/g16/l1.exe PID=    174994.
  
 Copyright (c) 1988,1990,1992,1993,1995,1998,2003,2009,2016,
            Gaussian, Inc.  All Rights Reserved.
  
 This is part of the Gaussian(R) 16 program.  It is based on
 the Gaussian(R) 09 system (copyright 2009, Gaussian, Inc.),
 the Gaussian(R) 03 system (copyright 2003, Gaussian, Inc.),
 the Gaussian(R) 98 system (copyright 1998, Gaussian, Inc.),
 the Gaussian(R) 94 system (copyright 1995, Gaussian, Inc.),
 the Gaussian 92(TM) system (copyright 1992, Gaussian, Inc.),
 the Gaussian 90(TM) system (copyright 1990, Gaussian, Inc.),
 the Gaussian 88(TM) system (copyright 1988, Gaussian, Inc.),
 the Gaussian 86(TM) system (copyright 1986, Carnegie Mellon
 University), and the Gaussian 82(TM) system (copyright 1983,
 Carnegie Mellon University). Gaussian is a federally registered
 trademark of Gaussian, Inc.
  
 This software contains proprietary and confidential information,
 including trade secrets, belonging to Gaussian, Inc.
  
 This software is provided under written license and may be
 used, copied, transmitted, or stored only in accord with that
 written license.
  
 The following legend is applicable only to US Government
 contracts under FAR:
  
                    RESTRICTED RIGHTS LEGEND
  
 Use, reproduction and disclosure by the US Government is
 subject to restrictions as set forth in subparagraphs (a)
 and (c) of the Commercial Computer Software - Restricted
 Rights clause in FAR 52.227-19.
  
 Gaussian, Inc.
 340 Quinnipiac St., Bldg. 40, Wallingford CT 06492
  
  
 ---------------------------------------------------------------
 Warning -- This program may not be used in any manner that
 competes with the business of Gaussian, Inc. or will provide
 assistance to any competitor of Gaussian, Inc.  The licensee
 of this program is prohibited from giving any competitor of
 Gaussian, Inc. access to this program.  By using this program,
 the user acknowledges that Gaussian, Inc. is engaged in the
 business of creating and licensing software in the field of
 computational chemistry and represents and warrants to the
 licensee that it is not a competitor of Gaussian, Inc. and that
 it will not use this program in any manner prohibited above.
 ---------------------------------------------------------------
  

 Cite this work as:
 Gaussian 16, Revision A.03,
 M. J. Frisch, G. W. Trucks, H. B. Schlegel, G. E. Scuseria, 
 M. A. Robb, J. R. Cheeseman, G. Scalmani, V. Barone, 
 G. A. Petersson, H. Nakatsuji, X. Li, M. Caricato, A. V. Marenich, 
 J. Bloino, B. G. Janesko, R. Gomperts, B. Mennucci, H. P. Hratchian, 
 J. V. Ortiz, A. F. Izmaylov, J. L. Sonnenberg, D. Williams-Young, 
 F. Ding, F. Lipparini, F. Egidi, J. Goings, B. Peng, A. Petrone, 
 T. Henderson, D. Ranasinghe, V. G. Zakrzewski, J. Gao, N. Rega, 
 G. Zheng, W. Liang, M. Hada, M. Ehara, K. Toyota, R. Fukuda, 
 J. Hasegawa, M. Ishida, T. Nakajima, Y. Honda, O. Kitao, H. Nakai, 
 T. Vreven, K. Throssell, J. A. Montgomery, Jr., J. E. Peralta, 
 F. Ogliaro, M. J. Bearpark, J. J. Heyd, E. N. Brothers, K. N. Kudin, 
 V. N. Staroverov, T. A. Keith, R. Kobayashi, J. Normand, 
 K. Raghavachari, A. P. Rendell, J. C. Burant, S. S. Iyengar, 
 J. Tomasi, M. Cossi, J. M. Millam, M. Klene, C. Adamo, R. Cammi, 
 J. W. Ochterski, R. L. Martin, K. Morokuma, O. Farkas, 
 J. B. Foresman, and D. J. Fox, Gaussian, Inc., Wallingford CT, 2016.
 
 ******************************************
 Gaussian 16:  ES64L-G16RevA.03 25-Dec-2016
                31-Mar-2021 
 ******************************************
 %chk=PRLD-DON-H52.chk
 %nproc=1
 Will use up to    1 processors via shared memory.
 %mem=1GB
 --------------------------------------------------------------
 # HF/6-31G* Opt=(Z-matrix,MaxCycles=100) Geom=PrintInputOrient
 --------------------------------------------------------------
 1/6=100,10=7,18=40,38=1/1,3;
 2/9=2000,12=2,17=6,18=5,29=3,40=1/2;
 3/5=1,6=6,7=1,11=9,25=1,30=1,71=1/1,2,3;
 4//1;
 5/5=2,38=5/2;
 6/7=2,8=2,9=2,10=2,28=1/1;
 7/29=1/1,2,3,16;
 1/6=100,10=7,18=40/3(2);
 2/9=2000,29=3/2;
 99//99;
 2/9=2000,29=3/2;
 3/5=1,6=6,7=1,11=9,25=1,30=1,71=1/1,2,3;
 4/5=5,16=3,69=1/1;
 5/5=2,38=5/2;
 7//1,2,3,16;
 1/6=100,18=40/3(-5);
 2/9=2000,29=3/2;
 6/7=2,8=2,9=2,10=2,19=2,28=1/1;
 99/9=1/99;
 ---------------------------------------------------------------
 <qmtool> simtype="Geometry optimization" </qmtool> PRLD-DON-H52
 ---------------------------------------------------------------
 Symbolic Z-matrix:
 Charge =  0 Multiplicity = 1
 N1                    0.844     0.456     0.923 
 H2                    1.372     0.495     1.798 
 C3                    1.643     1.125    -0.113 
 H4                    2.        2.097     0.243 
 H5                    0.987     1.307    -0.971 
 C6                    2.779     0.153    -0.504 
 H7                    3.689     0.384     0.059 
 H8                    3.031     0.222    -1.566 
 C9                    2.231    -1.24     -0.112 
 H10                   2.866    -1.707     0.647 
 H11                   2.185    -1.928    -0.962 
 C12                   0.83     -0.941     0.469 
 H13                   0.542    -1.609     1.286 
 H14                   0.068    -1.027    -0.314 
 x                    H14   1.       C12   90.      H13  dih      0
 Ow                   H14  rAH      x     90.      C12   180.     0
 H1w                  Ow    0.9572   H14   127.74   x     0.       0
 H2w                  Ow    0.9572   H14   127.74   x     180.     0
       Variables:
  rAH                   2.                       
  dih                   0.                       
 

 GradGradGradGradGradGradGradGradGradGradGradGradGradGradGradGradGradGrad
 Berny optimization.
 Initialization pass.
                       ----------------------------
                       !    Initial Parameters    !
                       ! (Angstroms and Degrees)  !
 ----------------------                            ----------------------
 !      Name          Value   Derivative information (Atomic Units)     !
 ------------------------------------------------------------------------
 !       rAH         2.0      estimate D2E/DX2                          !
 !       dih         0.0      estimate D2E/DX2                          !
 ------------------------------------------------------------------------
 Trust Radius=3.00D-01 FncErr=1.00D-07 GrdErr=1.00D-07 EigMax=2.50D+02 EigMin=1.00D-04
 Number of steps in this run=    100 maximum allowed number of steps=    100.
 GradGradGradGradGradGradGradGradGradGradGradGradGradGradGradGradGradGrad

 ---------------------------------------------------------------------------------------------------
                            Z-MATRIX (ANGSTROMS AND DEGREES)
   CD    Cent   Atom    N1       Length/X        N2       Alpha/Y        N3        Beta/Z          J
 ---------------------------------------------------------------------------------------------------
      1      1  N        0   0.844000          0.456000          0.923000
      2      2  H        0   1.372000          0.495000          1.798000
      3      3  C        0   1.643000          1.125000         -0.113000
      4      4  H        0   2.000000          2.097000          0.243000
      5      5  H        0   0.987000          1.307000         -0.971000
      6      6  C        0   2.779000          0.153000         -0.504000
      7      7  H        0   3.689000          0.384000          0.059000
      8      8  H        0   3.031000          0.222000         -1.566000
      9      9  C        0   2.231000         -1.240000         -0.112000
     10     10  H        0   2.866000         -1.707000          0.647000
     11     11  H        0   2.185000         -1.928000         -0.962000
     12     12  C        0   0.830000         -0.941000          0.469000
     13     13  H        0   0.542000         -1.609000          1.286000
     14     14  H        0   0.068000         -1.027000         -0.314000
     15         X       14   1.000000(    14)     12   90.000(    30)     13    0.000(    45)      0
     16     15  O       14   2.000000(    15)     15   90.000(    31)     12  180.000(    46)      0
     17     16  H       16   0.957200(    16)     14  127.740(    32)     15    0.000(    47)      0
     18     17  H       16   0.957200(    17)     14  127.740(    33)     15  180.000(    48)      0
 ---------------------------------------------------------------------------------------------------
                         Z-Matrix orientation:                         
 ---------------------------------------------------------------------
 Center     Atomic      Atomic             Coordinates (Angstroms)
 Number     Number       Type             X           Y           Z
 ---------------------------------------------------------------------
      1          7           0        0.844000    0.456000    0.923000
      2          1           0        1.372000    0.495000    1.798000
      3          6           0        1.643000    1.125000   -0.113000
      4          1           0        2.000000    2.097000    0.243000
      5          1           0        0.987000    1.307000   -0.971000
      6          6           0        2.779000    0.153000   -0.504000
      7          1           0        3.689000    0.384000    0.059000
      8          1           0        3.031000    0.222000   -1.566000
      9          6           0        2.231000   -1.240000   -0.112000
     10          1           0        2.866000   -1.707000    0.647000
     11          1           0        2.185000   -1.928000   -0.962000
     12          6           0        0.830000   -0.941000    0.469000
     13          1           0        0.542000   -1.609000    1.286000
     14          1           0        0.068000   -1.027000   -0.314000
     15         -1           0       -0.428982   -1.692605    0.242758
     16          8           0       -1.322561   -1.183940   -1.742884
     17          1           0       -2.106104   -1.733744   -1.740024
     18          1           0       -1.353724   -0.726084   -2.582901
 ---------------------------------------------------------------------
                    Distance matrix (angstroms):
                    1          2          3          4          5
     1  N    0.000000
     2  H    1.022707   0.000000
     3  C    1.469441   2.030335   0.000000
     4  H    2.119343   2.319227   1.094974   0.000000
     5  H    2.081318   2.911173   1.095274   1.767502   0.000000
     6  C    2.423296   2.719525   1.545368   2.223508   2.181987
     7  H    2.974173   2.899126   2.182838   2.412664   3.035397
     8  H    3.321573   3.760759   2.202989   2.801975   2.389390
     9  C    2.423099   2.719597   2.437000   3.363771   2.961862
    10  H    2.973757   2.899248   3.177035   3.922192   3.902917
    11  H    3.321891   3.761582   3.214868   4.205577   3.449712
    12  C    1.468986   2.030296   2.295223   3.263345   2.674276
    13  H    2.118301   2.319021   3.262539   4.116801   3.714180
    14  H    2.081258   2.911605   2.674347   3.715138   2.593023
    15  X    2.588380   3.232325   3.515475   4.501228   3.532116
    16  O    3.806616   4.755771   4.096618   5.074221   3.483484
    17  H    4.537597   5.438945   4.987525   5.955424   4.405090
    18  H    4.303331   5.302161   4.302009   5.215648   3.494373
                    6          7          8          9         10
     6  C    0.000000
     7  H    1.094728   0.000000
     8  H    1.093668   1.760634   0.000000
     9  C    1.547390   2.189151   2.211687   0.000000
    10  H    2.189057   2.322790   2.940346   1.094255   0.000000
    11  H    2.212049   2.941054   2.388102   1.094514   1.761103
    12  C    2.437656   3.177673   3.215306   1.545886   2.182598
    13  H    3.363467   3.921886   4.204948   2.223350   2.412240
    14  H    2.962773   3.904061   3.450634   2.182829   3.035577
    15  X    3.775586   4.615607   4.348424   2.721434   3.319717
    16  O    4.488323   5.551663   4.578368   3.910335   4.850689
    17  H    5.380688   6.426862   5.499551   4.658832   5.515471
    18  H    4.708930   5.800085   4.599864   4.384028   5.403751
                   11         12         13         14         15
    11  H    0.000000
    12  C    2.204077   0.000000
    13  H    2.802626   1.093918   0.000000
    14  H    2.390271   1.095960   1.767314   0.000000
    15  X    2.887863   1.483620   1.427637   1.000000   0.000000
    16  O    3.669658   3.095960   3.582095   2.000000   2.236068
    17  H    4.365390   3.758848   4.023039   2.694394   2.597279
    18  H    4.073633   3.758848   4.397921   2.694394   3.126286
                   16         17         18
    16  O    0.000000
    17  H    0.957200   0.000000
    18  H    0.957200   1.513901   0.000000
 Stoichiometry    C4H11NO
 Framework group  C1[X(C4H11NO)]
 Deg. of freedom    45
 Full point group                 C1      NOp   1
 Largest Abelian subgroup         C1      NOp   1
 Largest concise Abelian subgroup C1      NOp   1
                         Standard orientation:                         
 ---------------------------------------------------------------------
 Center     Atomic      Atomic             Coordinates (Angstroms)
 Number     Number       Type             X           Y           Z
 ---------------------------------------------------------------------
      1          7           0       -0.557078   -1.035905    0.820884
      2          1           0       -1.370041   -1.022728    1.441245
      3          6           0       -1.048997   -1.008139   -0.563495
      4          1           0       -1.833835   -1.757690   -0.708997
      5          1           0       -0.211756   -1.273855   -1.217748
      6          6           0       -1.513084    0.438158   -0.848115
      7          1           0       -2.590482    0.533057   -0.678893
      8          1           0       -1.322309    0.734287   -1.883500
      9          6           0       -0.721175    1.292483    0.170427
     10          1           0       -1.401250    1.815370    0.849752
     11          1           0       -0.099471    2.053017   -0.312306
     12          6           0        0.125466    0.258684    0.947745
     13          1           0        0.273015    0.515135    2.000892
     14          1           0        1.115712    0.157164    0.489232
     15          8           0        2.922797   -0.028100   -0.347501
     16          1           0        3.776442    0.081550    0.071425
     17          1           0        3.127891   -0.246292   -1.256655
 ---------------------------------------------------------------------
 Rotational constants (GHZ):           4.4070357           1.8112532           1.7152189
 Standard basis: 6-31G(d) (6D, 7F)
 There are   112 symmetry adapted cartesian basis functions of A   symmetry.
 There are   112 symmetry adapted basis functions of A   symmetry.
   112 basis functions,   212 primitive gaussians,   112 cartesian basis functions
    25 alpha electrons       25 beta electrons
       nuclear repulsion energy       253.0498244388 Hartrees.
 NAtoms=   17 NActive=   17 NUniq=   17 SFac= 1.00D+00 NAtFMM=   60 NAOKFM=F Big=F
 Integral buffers will be    131072 words long.
 Raffenetti 1 integral format.
 Two-electron integral symmetry is turned on.
 One-electron integrals computed using PRISM.
 NBasis=   112 RedAO= T EigKep=  3.07D-03  NBF=   112
 NBsUse=   112 1.00D-06 EigRej= -1.00D+00 NBFU=   112
 ExpMin= 1.61D-01 ExpMax= 5.48D+03 ExpMxC= 8.25D+02 IAcc=3 IRadAn=         5 AccDes= 0.00D+00
 Harris functional with IExCor=  205 and IRadAn=       5 diagonalized for initial guess.
 HarFok:  IExCor=  205 AccDes= 0.00D+00 IRadAn=         5 IDoV= 1 UseB2=F ITyADJ=14
 ICtDFT=  3500011 ScaDFX=  1.000000  1.000000  1.000000  1.000000
 FoFCou: FMM=F IPFlag=           0 FMFlag=      100000 FMFlg1=           0
         NFxFlg=           0 DoJE=T BraDBF=F KetDBF=T FulRan=T
         wScrn=  0.000000 ICntrl=       500 IOpCl=  0 I1Cent=   200000004 NGrid=           0
         NMat0=    1 NMatS0=      1 NMatT0=    0 NMatD0=    1 NMtDS0=    0 NMtDT0=    0
 Petite list used in FoFCou.
 Keep R1 ints in memory in canonical form, NReq=20924641.
 Requested convergence on RMS density matrix=1.00D-08 within 128 cycles.
 Requested convergence on MAX density matrix=1.00D-06.
 Requested convergence on             energy=1.00D-06.
 No special actions if energy rises.
 SCF Done:  E(RHF) =  -287.149640225     A.U. after   12 cycles
            NFock= 12  Conv=0.68D-08     -V/T= 2.0016

 **********************************************************************

            Population analysis using the SCF density.

 **********************************************************************

 Orbital symmetries:
       Occupied  (A) (A) (A) (A) (A) (A) (A) (A) (A) (A) (A) (A)
                 (A) (A) (A) (A) (A) (A) (A) (A) (A) (A) (A) (A)
                 (A)
       Virtual   (A) (A) (A) (A) (A) (A) (A) (A) (A) (A) (A) (A)
                 (A) (A) (A) (A) (A) (A) (A) (A) (A) (A) (A) (A)
                 (A) (A) (A) (A) (A) (A) (A) (A) (A) (A) (A) (A)
                 (A) (A) (A) (A) (A) (A) (A) (A) (A) (A) (A) (A)
                 (A) (A) (A) (A) (A) (A) (A) (A) (A) (A) (A) (A)
                 (A) (A) (A) (A) (A) (A) (A) (A) (A) (A) (A) (A)
                 (A) (A) (A) (A) (A) (A) (A) (A) (A) (A) (A) (A)
                 (A) (A) (A)
 The electronic state is 1-A.
 Alpha  occ. eigenvalues --  -20.56972 -15.52363 -11.22951 -11.21186 -11.20615
 Alpha  occ. eigenvalues --  -11.20181  -1.35227  -1.19891  -1.00410  -0.95149
 Alpha  occ. eigenvalues --   -0.79710  -0.76790  -0.71661  -0.65826  -0.62445
 Alpha  occ. eigenvalues --   -0.59795  -0.57385  -0.55462  -0.50789  -0.48888
 Alpha  occ. eigenvalues --   -0.47236  -0.46377  -0.45890  -0.43736  -0.35479
 Alpha virt. eigenvalues --    0.19846   0.22842   0.26891   0.29537   0.29967
 Alpha virt. eigenvalues --    0.30793   0.32929   0.33979   0.35239   0.37549
 Alpha virt. eigenvalues --    0.38440   0.40723   0.42951   0.46664   0.50320
 Alpha virt. eigenvalues --    0.54144   0.74198   0.77625   0.78360   0.81201
 Alpha virt. eigenvalues --    0.81855   0.85239   0.92064   0.93524   0.94078
 Alpha virt. eigenvalues --    0.96140   1.01150   1.03836   1.04546   1.11018
 Alpha virt. eigenvalues --    1.12303   1.14406   1.14998   1.15285   1.16413
 Alpha virt. eigenvalues --    1.17689   1.18824   1.20718   1.22743   1.23638
 Alpha virt. eigenvalues --    1.24877   1.25389   1.27579   1.37978   1.43016
 Alpha virt. eigenvalues --    1.47805   1.53918   1.57710   1.61096   1.68554
 Alpha virt. eigenvalues --    1.71890   1.92848   2.02337   2.02382   2.05696
 Alpha virt. eigenvalues --    2.10182   2.13830   2.15197   2.16948   2.21810
 Alpha virt. eigenvalues --    2.28245   2.31483   2.33380   2.36982   2.44519
 Alpha virt. eigenvalues --    2.45110   2.46447   2.52772   2.59106   2.60739
 Alpha virt. eigenvalues --    2.62373   2.73178   2.75595   2.83891   2.91624
 Alpha virt. eigenvalues --    2.94217   2.97412   2.99663   3.00536   3.04550
 Alpha virt. eigenvalues --    3.25962   4.09087   4.37441   4.62671   4.73478
 Alpha virt. eigenvalues --    4.92084   5.08200
          Condensed to atoms (all electrons):
               1          2          3          4          5          6
     1  N    7.061606   0.326061   0.299465  -0.033913  -0.047203  -0.086140
     2  H    0.326061   0.446053  -0.043520  -0.005620   0.005869  -0.000849
     3  C    0.299465  -0.043520   4.966156   0.402755   0.404726   0.335632
     4  H   -0.033913  -0.005620   0.402755   0.533227  -0.027842  -0.036105
     5  H   -0.047203   0.005869   0.404726  -0.027842   0.554866  -0.054340
     6  C   -0.086140  -0.000849   0.335632  -0.036105  -0.054340   5.204341
     7  H    0.002733   0.000985  -0.038561  -0.004374   0.003947   0.394936
     8  H    0.004482  -0.000022  -0.032707   0.001440  -0.002557   0.389970
     9  C   -0.085541  -0.000923  -0.062636   0.003911  -0.000280   0.323389
    10  H    0.002783   0.001103   0.003348  -0.000166  -0.000022  -0.039289
    11  H    0.004430  -0.000047   0.003035  -0.000066   0.000176  -0.033635
    12  C    0.284101  -0.043350  -0.091883   0.006147  -0.001542  -0.060411
    13  H   -0.034697  -0.005799   0.006334  -0.000126  -0.000173   0.004069
    14  H   -0.041895   0.005244  -0.002444  -0.000118   0.002773  -0.000805
    15  O    0.000459  -0.000014  -0.000070   0.000001   0.000368  -0.000034
    16  H   -0.000023   0.000001   0.000002  -0.000000  -0.000006   0.000001
    17  H   -0.000047   0.000001   0.000029  -0.000000   0.000049  -0.000001
               7          8          9         10         11         12
     1  N    0.002733   0.004482  -0.085541   0.002783   0.004430   0.284101
     2  H    0.000985  -0.000022  -0.000923   0.001103  -0.000047  -0.043350
     3  C   -0.038561  -0.032707  -0.062636   0.003348   0.003035  -0.091883
     4  H   -0.004374   0.001440   0.003911  -0.000166  -0.000066   0.006147
     5  H    0.003947  -0.002557  -0.000280  -0.000022   0.000176  -0.001542
     6  C    0.394936   0.389970   0.323389  -0.039289  -0.033635  -0.060411
     7  H    0.550899  -0.026918  -0.038404  -0.006573   0.002689   0.003199
     8  H   -0.026918   0.538736  -0.033526   0.002733  -0.003830   0.002941
     9  C   -0.038404  -0.033526   5.202343   0.394366   0.391628   0.328654
    10  H   -0.006573   0.002733   0.394366   0.557755  -0.027676  -0.038644
    11  H    0.002689  -0.003830   0.391628  -0.027676   0.534192  -0.032368
    12  C    0.003199   0.002941   0.328654  -0.038644  -0.032368   5.059575
    13  H   -0.000170  -0.000068  -0.037541  -0.004488   0.001479   0.400167
    14  H   -0.000004   0.000167  -0.046919   0.003400  -0.002030   0.405052
    15  O   -0.000000  -0.000003   0.000569  -0.000006   0.000343  -0.013384
    16  H    0.000000   0.000000  -0.000031   0.000000  -0.000010   0.000719
    17  H    0.000000   0.000001  -0.000050   0.000001  -0.000019   0.000698
              13         14         15         16         17
     1  N   -0.034697  -0.041895   0.000459  -0.000023  -0.000047
     2  H   -0.005799   0.005244  -0.000014   0.000001   0.000001
     3  C    0.006334  -0.002444  -0.000070   0.000002   0.000029
     4  H   -0.000126  -0.000118   0.000001  -0.000000  -0.000000
     5  H   -0.000173   0.002773   0.000368  -0.000006   0.000049
     6  C    0.004069  -0.000805  -0.000034   0.000001  -0.000001
     7  H   -0.000170  -0.000004  -0.000000   0.000000   0.000000
     8  H   -0.000068   0.000167  -0.000003   0.000000   0.000001
     9  C   -0.037541  -0.046919   0.000569  -0.000031  -0.000050
    10  H   -0.004488   0.003400  -0.000006   0.000000   0.000001
    11  H    0.001479  -0.002030   0.000343  -0.000010  -0.000019
    12  C    0.400167   0.405052  -0.013384   0.000719   0.000698
    13  H    0.543446  -0.022629   0.000327  -0.000029  -0.000012
    14  H   -0.022629   0.434921  -0.003979   0.000794   0.000868
    15  O    0.000327  -0.003979   8.353843   0.263027   0.262523
    16  H   -0.000029   0.000794   0.263027   0.313350  -0.017068
    17  H   -0.000012   0.000868   0.262523  -0.017068   0.314843
 Mulliken charges:
               1
     1  N   -0.656661
     2  H    0.314826
     3  C   -0.149661
     4  H    0.160849
     5  H    0.161191
     6  C   -0.340729
     7  H    0.155617
     8  H    0.159163
     9  C   -0.339006
    10  H    0.151374
    11  H    0.161710
    12  C   -0.209673
    13  H    0.149909
    14  H    0.267603
    15  O   -0.863972
    16  H    0.439272
    17  H    0.438186
 Sum of Mulliken charges =  -0.00000
 Mulliken charges with hydrogens summed into heavy atoms:
               1
     1  N   -0.341835
     3  C    0.172379
     6  C   -0.025948
     9  C   -0.025922
    12  C    0.207840
    15  O    0.013486
 Electronic spatial extent (au):  <R**2>=            815.5133
 Charge=             -0.0000 electrons
 Dipole moment (field-independent basis, Debye):
    X=              1.7725    Y=              0.9471    Z=             -1.2840  Tot=              2.3848
 Quadrupole moment (field-independent basis, Debye-Ang):
   XX=            -23.4412   YY=            -43.1965   ZZ=            -36.1001
   XY=              0.9863   XZ=             -4.4406   YZ=              2.4976
 Traceless Quadrupole moment (field-independent basis, Debye-Ang):
   XX=             10.8047   YY=             -8.9505   ZZ=             -1.8542
   XY=              0.9863   XZ=             -4.4406   YZ=              2.4976
 Octapole moment (field-independent basis, Debye-Ang**2):
  XXX=             80.1032  YYY=              2.2044  ZZZ=             -2.7364  XYY=              3.5794
  XXY=             -4.9607  XXZ=             -6.2893  XZZ=             12.1417  YZZ=             -0.2343
  YYZ=             -3.8343  XYZ=              2.9608
 Hexadecapole moment (field-independent basis, Debye-Ang**3):
 XXXX=           -296.7625 YYYY=           -245.0317 ZZZZ=           -175.0851 XXXY=              4.2948
 XXXZ=            -42.9627 YYYX=              5.4973 YYYZ=              5.2168 ZZZX=            -25.9427
 ZZZY=              0.7920 XXYY=           -139.3601 XXZZ=           -102.0680 YYZZ=            -72.6126
 XXYZ=              6.2180 YYXZ=             -4.5111 ZZXY=             -0.3863
 N-N= 2.530498244388D+02 E-N=-1.179239177954D+03  KE= 2.866885177222D+02
 Calling FoFJK, ICntrl=      2127 FMM=F ISym2X=0 I1Cent= 0 IOpClX= 0 NMat=1 NMatS=1 NMatT=0.
 ***** Axes restored to original set *****
 -------------------------------------------------------------------
 Center     Atomic                   Forces (Hartrees/Bohr)
 Number     Number              X              Y              Z
 -------------------------------------------------------------------
      1        7           0.016756551   -0.002580390    0.006597707
      2        1          -0.008723285    0.000991149   -0.012963440
      3        6          -0.005225787    0.005872468    0.002723836
      4        1          -0.002242789   -0.006843042   -0.003051041
      5        1           0.004180446   -0.000682864    0.005333120
      6        6           0.005125152    0.002361396   -0.001694005
      7        1          -0.004914891   -0.001256744   -0.003732547
      8        1          -0.001169887   -0.000090473    0.006101449
      9        6           0.001745965   -0.006142350    0.002152568
     10        1          -0.002134092    0.002316362   -0.004881917
     11        1          -0.000167946    0.004321647    0.005523880
     12        6          -0.011425712   -0.002111912   -0.003069237
     13        1           0.003111965    0.004104814   -0.004128437
     14        1           0.012066119    0.000797856    0.012988210
     15        8          -0.016358415   -0.002658942   -0.018516885
     16        1           0.008086951    0.005275816    0.001670747
     17        1           0.001289655   -0.003674791    0.008945991
 -------------------------------------------------------------------
 Cartesian Forces:  Max     0.018516885 RMS     0.006724147
 -----------------------------------------------------------------------------------------------
                       Internal Coordinate Forces (Hartree/Bohr or radian)
  Cent   Atom   N1       Length/X         N2         Alpha/Y        N3         Beta/Z          J
 -----------------------------------------------------------------------------------------------
      1  N            0.016757(     1)     -0.002580(    19)      0.006598(    37)
      2  H           -0.008723(     2)      0.000991(    20)     -0.012963(    38)
      3  C           -0.005226(     3)      0.005872(    21)      0.002724(    39)
      4  H           -0.002243(     4)     -0.006843(    22)     -0.003051(    40)
      5  H            0.004180(     5)     -0.000683(    23)      0.005333(    41)
      6  C            0.005125(     6)      0.002361(    24)     -0.001694(    42)
      7  H           -0.004915(     7)     -0.001257(    25)     -0.003733(    43)
      8  H           -0.001170(     8)     -0.000090(    26)      0.006101(    44)
      9  C            0.001746(     9)     -0.006142(    27)      0.002153(    45)
     10  H           -0.002134(    10)      0.002316(    28)     -0.004882(    46)
     11  H           -0.000168(    11)      0.004322(    29)      0.005524(    47)
     12  C           -0.011740(    12)     -0.001871(    30)     -0.002790(    48)
     13  H            0.003101(    13)      0.004121(    31)     -0.004119(    49)
     14  H            0.005410(    14)     -0.000518(    32)      0.004799(    50)
         X       14   0.000000(    15)     12   0.000313(    33)     13   0.000043(    51)     0
     15  O       14   0.010582(    16)     15   0.000313(    34)     12  -0.001013(    52)     0
     16  H       16  -0.009645(    17)     14  -0.003035(    35)     15   0.000607(    53)     0
     17  H       16  -0.009651(    18)     14  -0.002500(    36)     15  -0.000564(    54)     0
 -----------------------------------------------------------------------------------------------
 Internal  Forces:  Max     0.016756551 RMS     0.005366178

 GradGradGradGradGradGradGradGradGradGradGradGradGradGradGradGradGradGrad
 Berny optimization.
 Search for a local minimum.
 Step number   1 out of a maximum of  100
 All quantities printed in internal units (Hartrees-Bohrs-Radians)
 Second derivative matrix not updated -- first step.
 The second derivative matrix:
                          rAH       dih
           rAH          0.04307
           dih          0.00000  -0.00000
 ITU=  0
     Eigenvalues ---    0.00000   0.04307
 RFO step:  Lambda=-2.46019363D-03 EMin= 0.00000000D+00
 Linear search not attempted -- first point.
 Variable       Old X    -DE/DX   Delta X   Delta X   Delta X     New X
                                 (Linear)    (Quad)   (Total)
   rAH        3.77945   0.01058   0.00000   0.23243   0.23243   4.01188
   dih        0.00000   0.00004   0.00000   0.01767   0.01767   0.01767
         Item               Value     Threshold  Converged?
 Maximum Force            0.010582     0.000450     NO 
 RMS     Force            0.007482     0.000300     NO 
 Maximum Displacement     0.232427     0.001800     NO 
 RMS     Displacement     0.164825     0.001200     NO 
 Predicted change in Energy=-1.296938D-03
 GradGradGradGradGradGradGradGradGradGradGradGradGradGradGradGradGradGrad

 ---------------------------------------------------------------------------------------------------
                            Z-MATRIX (ANGSTROMS AND DEGREES)
   CD    Cent   Atom    N1       Length/X        N2       Alpha/Y        N3        Beta/Z          J
 ---------------------------------------------------------------------------------------------------
      1      1  N        0   0.844000          0.456000          0.923000
      2      2  H        0   1.372000          0.495000          1.798000
      3      3  C        0   1.643000          1.125000         -0.113000
      4      4  H        0   2.000000          2.097000          0.243000
      5      5  H        0   0.987000          1.307000         -0.971000
      6      6  C        0   2.779000          0.153000         -0.504000
      7      7  H        0   3.689000          0.384000          0.059000
      8      8  H        0   3.031000          0.222000         -1.566000
      9      9  C        0   2.231000         -1.240000         -0.112000
     10     10  H        0   2.866000         -1.707000          0.647000
     11     11  H        0   2.185000         -1.928000         -0.962000
     12     12  C        0   0.830000         -0.941000          0.469000
     13     13  H        0   0.542000         -1.609000          1.286000
     14     14  H        0   0.068000         -1.027000         -0.314000
     15         X       14   1.000000(    14)     12   90.000(    30)     13    1.013(    45)      0
     16     15  O       14   2.122995(    15)     15   90.000(    31)     12  180.000(    46)      0
     17     16  H       16   0.957200(    16)     14  127.740(    32)     15    0.000(    47)      0
     18     17  H       16   0.957200(    17)     14  127.740(    33)     15  180.000(    48)      0
 ---------------------------------------------------------------------------------------------------
                         Z-Matrix orientation:                         
 ---------------------------------------------------------------------
 Center     Atomic      Atomic             Coordinates (Angstroms)
 Number     Number       Type             X           Y           Z
 ---------------------------------------------------------------------
      1          7           0        0.844000    0.456000    0.923000
      2          1           0        1.372000    0.495000    1.798000
      3          6           0        1.643000    1.125000   -0.113000
      4          1           0        2.000000    2.097000    0.243000
      5          1           0        0.987000    1.307000   -0.971000
      6          6           0        2.779000    0.153000   -0.504000
      7          1           0        3.689000    0.384000    0.059000
      8          1           0        3.031000    0.222000   -1.566000
      9          6           0        2.231000   -1.240000   -0.112000
     10          1           0        2.866000   -1.707000    0.647000
     11          1           0        2.185000   -1.928000   -0.962000
     12          6           0        0.830000   -0.941000    0.469000
     13          1           0        0.542000   -1.609000    1.286000
     14          1           0        0.068000   -1.027000   -0.314000
     15         -1           0       -0.438080   -1.679384    0.250161
     16          8           0       -1.408077   -1.193591   -1.830757
     17          1           0       -2.198508   -1.733388   -1.822294
     18          1           0       -1.432352   -0.745743   -2.676378
 ---------------------------------------------------------------------
                    Distance matrix (angstroms):
                    1          2          3          4          5
     1  N    0.000000
     2  H    1.022707   0.000000
     3  C    1.469441   2.030335   0.000000
     4  H    2.119343   2.319227   1.094974   0.000000
     5  H    2.081318   2.911173   1.095274   1.767502   0.000000
     6  C    2.423296   2.719525   1.545368   2.223508   2.181987
     7  H    2.974173   2.899126   2.182838   2.412664   3.035397
     8  H    3.321573   3.760759   2.202989   2.801975   2.389390
     9  C    2.423099   2.719597   2.437000   3.363771   2.961862
    10  H    2.973757   2.899248   3.177035   3.922192   3.902917
    11  H    3.321891   3.761582   3.214868   4.205577   3.449712
    12  C    1.468986   2.030296   2.295223   3.263345   2.674276
    13  H    2.118301   2.319021   3.262539   4.116801   3.714180
    14  H    2.081258   2.911605   2.674347   3.715138   2.593023
    15  X    2.579982   3.224925   3.511033   4.495037   3.527120
    16  O    3.921247   4.873197   4.199479   5.171407   3.567707
    17  H    4.646171   5.551645   5.084215   6.046881   4.485100
    18  H    4.425097   5.424379   4.419092   5.327757   3.602129
                    6          7          8          9         10
     6  C    0.000000
     7  H    1.094728   0.000000
     8  H    1.093668   1.760634   0.000000
     9  C    1.547390   2.189151   2.211687   0.000000
    10  H    2.189057   2.322790   2.940346   1.094255   0.000000
    11  H    2.212049   2.941054   2.388102   1.094514   1.761103
    12  C    2.437656   3.177673   3.215306   1.545886   2.182598
    13  H    3.363467   3.921886   4.204948   2.223350   2.412240
    14  H    2.962773   3.904061   3.450634   2.182829   3.035577
    15  X    3.778359   4.618104   4.352955   2.729141   3.327941
    16  O    4.594041   5.660404   4.666841   4.024818   4.966951
    17  H    5.483789   6.533402   5.589005   4.773790   5.634478
    18  H    4.823116   5.914969   4.700104   4.498941   5.517670
                   11         12         13         14         15
    11  H    0.000000
    12  C    2.204077   0.000000
    13  H    2.802626   1.093918   0.000000
    14  H    2.390271   1.095960   1.767314   0.000000
    15  X    2.900292   1.483620   1.427751   1.000000   0.000000
    16  O    3.768859   3.218955   3.699938   2.122995   2.346723
    17  H    4.471366   3.879402   4.145762   2.812648   2.719759
    18  H    4.173974   3.879402   4.510401   2.812648   3.228760
                   16         17         18
    16  O    0.000000
    17  H    0.957200   0.000000
    18  H    0.957200   1.513901   0.000000
 Stoichiometry    C4H11NO
 Framework group  C1[X(C4H11NO)]
 Deg. of freedom    45
 Full point group                 C1      NOp   1
 Largest Abelian subgroup         C1      NOp   1
 Largest concise Abelian subgroup C1      NOp   1
                         Standard orientation:                         
 ---------------------------------------------------------------------
 Center     Atomic      Atomic             Coordinates (Angstroms)
 Number     Number       Type             X           Y           Z
 ---------------------------------------------------------------------
      1          7           0       -0.590601   -1.030628    0.826937
      2          1           0       -1.415051   -1.016799    1.431933
      3          6           0       -1.056692   -1.013786   -0.566524
      4          1           0       -1.835684   -1.767472   -0.721754
      5          1           0       -0.206329   -1.280265   -1.203310
      6          6           0       -1.521141    0.428734   -0.869153
      7          1           0       -2.601881    0.520297   -0.720670
      8          1           0       -1.312248    0.718978   -1.902705
      9          6           0       -0.751798    1.292835    0.158397
     10          1           0       -1.446517    1.817285    0.821507
     11          1           0       -0.124224    2.052794   -0.317598
     12          6           0        0.084293    0.267541    0.958076
     13          1           0        0.211129    0.531362    2.012101
     14          1           0        1.083325    0.167138    0.518777
     15          8           0        3.018558   -0.027352   -0.332194
     16          1           0        3.863858    0.075486    0.104985
     17          1           0        3.241391   -0.237536   -1.239057
 ---------------------------------------------------------------------
 Rotational constants (GHZ):           4.3805091           1.7314108           1.6472629
 Standard basis: 6-31G(d) (6D, 7F)
 There are   112 symmetry adapted cartesian basis functions of A   symmetry.
 There are   112 symmetry adapted basis functions of A   symmetry.
   112 basis functions,   212 primitive gaussians,   112 cartesian basis functions
    25 alpha electrons       25 beta electrons
       nuclear repulsion energy       251.4890042107 Hartrees.
 NAtoms=   17 NActive=   17 NUniq=   17 SFac= 1.00D+00 NAtFMM=   60 NAOKFM=F Big=F
 Integral buffers will be    131072 words long.
 Raffenetti 1 integral format.
 Two-electron integral symmetry is turned on.
 One-electron integrals computed using PRISM.
 NBasis=   112 RedAO= T EigKep=  3.09D-03  NBF=   112
 NBsUse=   112 1.00D-06 EigRej= -1.00D+00 NBFU=   112
 Initial guess from the checkpoint file:  "PRLD-DON-H52.chk"
 B after Tr=    -0.000000   -0.000000   -0.000000
         Rot=    0.999976    0.003278    0.006068   -0.001141 Ang=   0.80 deg.
 ExpMin= 1.61D-01 ExpMax= 5.48D+03 ExpMxC= 8.25D+02 IAcc=2 IRadAn=         4 AccDes= 0.00D+00
 Harris functional with IExCor=  205 and IRadAn=       4 diagonalized for initial guess.
 HarFok:  IExCor=  205 AccDes= 0.00D+00 IRadAn=         4 IDoV= 1 UseB2=F ITyADJ=14
 ICtDFT=  3500011 ScaDFX=  1.000000  1.000000  1.000000  1.000000
 FoFCou: FMM=F IPFlag=           0 FMFlag=      100000 FMFlg1=           0
         NFxFlg=           0 DoJE=T BraDBF=F KetDBF=T FulRan=T
         wScrn=  0.000000 ICntrl=       500 IOpCl=  0 I1Cent=   200000004 NGrid=           0
         NMat0=    1 NMatS0=      1 NMatT0=    0 NMatD0=    1 NMtDS0=    0 NMtDT0=    0
 Petite list used in FoFCou.
 Keep R1 ints in memory in canonical form, NReq=20924169.
 Requested convergence on RMS density matrix=1.00D-08 within 128 cycles.
 Requested convergence on MAX density matrix=1.00D-06.
 Requested convergence on             energy=1.00D-06.
 No special actions if energy rises.
 SCF Done:  E(RHF) =  -287.151593548     A.U. after   10 cycles
            NFock= 10  Conv=0.23D-08     -V/T= 2.0017
 Calling FoFJK, ICntrl=      2127 FMM=F ISym2X=0 I1Cent= 0 IOpClX= 0 NMat=1 NMatS=1 NMatT=0.
 ***** Axes restored to original set *****
 -------------------------------------------------------------------
 Center     Atomic                   Forces (Hartrees/Bohr)
 Number     Number              X              Y              Z
 -------------------------------------------------------------------
      1        7           0.016692237   -0.002866557    0.006333122
      2        1          -0.008823325    0.000832363   -0.012959372
      3        6          -0.005202545    0.006016186    0.002488891
      4        1          -0.002255358   -0.006887306   -0.003011711
      5        1           0.004188876   -0.000723923    0.005389316
      6        6           0.005139213    0.002428158   -0.001688192
      7        1          -0.004922016   -0.001287789   -0.003725735
      8        1          -0.001213078   -0.000111371    0.006141774
      9        6           0.001681396   -0.006170322    0.001796144
     10        1          -0.002305585    0.002336792   -0.004820661
     11        1          -0.000149298    0.004352114    0.005586344
     12        6          -0.011352107   -0.001886462   -0.002771934
     13        1           0.002945672    0.004160642   -0.004448082
     14        1           0.009763789    0.000537253    0.010674055
     15        8          -0.013843936   -0.002328198   -0.015814373
     16        1           0.008379859    0.005310655    0.001620890
     17        1           0.001276206   -0.003712234    0.009209525
 -------------------------------------------------------------------
 Cartesian Forces:  Max     0.016692237 RMS     0.006321357
 -----------------------------------------------------------------------------------------------
                       Internal Coordinate Forces (Hartree/Bohr or radian)
  Cent   Atom   N1       Length/X         N2         Alpha/Y        N3         Beta/Z          J
 -----------------------------------------------------------------------------------------------
      1  N            0.016692(     1)     -0.002867(    19)      0.006333(    37)
      2  H           -0.008823(     2)      0.000832(    20)     -0.012959(    38)
      3  C           -0.005203(     3)      0.006016(    21)      0.002489(    39)
      4  H           -0.002255(     4)     -0.006887(    22)     -0.003012(    40)
      5  H            0.004189(     5)     -0.000724(    23)      0.005389(    41)
      6  C            0.005139(     6)      0.002428(    24)     -0.001688(    42)
      7  H           -0.004922(     7)     -0.001288(    25)     -0.003726(    43)
      8  H           -0.001213(     8)     -0.000111(    26)      0.006142(    44)
      9  C            0.001681(     9)     -0.006170(    27)      0.001796(    45)
     10  H           -0.002306(    10)      0.002337(    28)     -0.004821(    46)
     11  H           -0.000149(    11)      0.004352(    29)      0.005586(    47)
     12  C           -0.011682(    12)     -0.001632(    30)     -0.002479(    48)
     13  H            0.002932(    13)      0.004180(    31)     -0.004437(    49)
     14  H            0.005919(    14)     -0.000466(    32)      0.005386(    50)
         X       14  -0.000000(    15)     12   0.000345(    33)     13   0.000051(    51)     0
     15  O       14   0.006530(    16)     15   0.000345(    34)     12  -0.001067(    52)     0
     16  H       16  -0.009900(    17)     14  -0.003068(    35)     15   0.000568(    53)     0
     17  H       16  -0.009905(    18)     14  -0.002546(    36)     15  -0.000518(    54)     0
 -----------------------------------------------------------------------------------------------
 Internal  Forces:  Max     0.016692237 RMS     0.005280959

 GradGradGradGradGradGradGradGradGradGradGradGradGradGradGradGradGradGrad
 Berny optimization.
 Search for a local minimum.
 Step number   2 out of a maximum of  100
 All quantities printed in internal units (Hartrees-Bohrs-Radians)
 Update second derivatives using D2CorN and points    1    2
 DE= -1.95D-03 DEPred=-1.30D-03 R= 1.51D+00
 TightC=F SS=  1.41D+00  RLast= 2.33D-01 DXNew= 5.0454D-01 6.9929D-01
 Trust test= 1.51D+00 RLast= 2.33D-01 DXMaxT set to 5.05D-01
 The second derivative matrix:
                          rAH       dih
           rAH          0.01758
           dih         -0.00098  -0.00000
 ITU=  1  0
     Eigenvalues ---   -0.00006   0.01763
 RFO step:  Lambda=-2.13378590D-04 EMin=-5.72621041D-05
 Quartic linear search produced a step of  2.00000.
 Maximum step size (   0.505) exceeded in Quadratic search.
    -- Step size scaled by   0.432
 Variable       Old X    -DE/DX   Delta X   Delta X   Delta X     New X
                                 (Linear)    (Quad)   (Total)
   rAH        4.01188   0.00653   0.46485   0.02753   0.49238   4.50426
   dih        0.01767   0.00005   0.03535   0.50379   0.53913   0.55681
         Item               Value     Threshold  Converged?
 Maximum Force            0.006530     0.000450     NO 
 RMS     Force            0.004617     0.000300     NO 
 Maximum Displacement     0.539135     0.001800     NO 
 RMS     Displacement     0.516289     0.001200     NO 
 Predicted change in Energy=-1.373045D-03
 GradGradGradGradGradGradGradGradGradGradGradGradGradGradGradGradGradGrad

 ---------------------------------------------------------------------------------------------------
                            Z-MATRIX (ANGSTROMS AND DEGREES)
   CD    Cent   Atom    N1       Length/X        N2       Alpha/Y        N3        Beta/Z          J
 ---------------------------------------------------------------------------------------------------
      1      1  N        0   0.844000          0.456000          0.923000
      2      2  H        0   1.372000          0.495000          1.798000
      3      3  C        0   1.643000          1.125000         -0.113000
      4      4  H        0   2.000000          2.097000          0.243000
      5      5  H        0   0.987000          1.307000         -0.971000
      6      6  C        0   2.779000          0.153000         -0.504000
      7      7  H        0   3.689000          0.384000          0.059000
      8      8  H        0   3.031000          0.222000         -1.566000
      9      9  C        0   2.231000         -1.240000         -0.112000
     10     10  H        0   2.866000         -1.707000          0.647000
     11     11  H        0   2.185000         -1.928000         -0.962000
     12     12  C        0   0.830000         -0.941000          0.469000
     13     13  H        0   0.542000         -1.609000          1.286000
     14     14  H        0   0.068000         -1.027000         -0.314000
     15         X       14   1.000000(    14)     12   90.000(    30)     13   31.903(    45)      0
     16     15  O       14   2.383554(    15)     15   90.000(    31)     12  180.000(    46)      0
     17     16  H       16   0.957200(    16)     14  127.740(    32)     15    0.000(    47)      0
     18     17  H       16   0.957200(    17)     14  127.740(    33)     15  180.000(    48)      0
 ---------------------------------------------------------------------------------------------------
                         Z-Matrix orientation:                         
 ---------------------------------------------------------------------
 Center     Atomic      Atomic             Coordinates (Angstroms)
 Number     Number       Type             X           Y           Z
 ---------------------------------------------------------------------
      1          7           0        0.844000    0.456000    0.923000
      2          1           0        1.372000    0.495000    1.798000
      3          6           0        1.643000    1.125000   -0.113000
      4          1           0        2.000000    2.097000    0.243000
      5          1           0        0.987000    1.307000   -0.971000
      6          6           0        2.779000    0.153000   -0.504000
      7          1           0        3.689000    0.384000    0.059000
      8          1           0        3.031000    0.222000   -1.566000
      9          6           0        2.231000   -1.240000   -0.112000
     10          1           0        2.866000   -1.707000    0.647000
     11          1           0        2.185000   -1.928000   -0.962000
     12          6           0        0.830000   -0.941000    0.469000
     13          1           0        0.542000   -1.609000    1.286000
     14          1           0        0.068000   -1.027000   -0.314000
     15         -1           0       -0.628310   -1.199842    0.382619
     16          8           0       -1.589239   -1.214037   -2.016911
     17          1           0       -2.523664   -1.390844   -1.908184
     18          1           0       -1.469519   -1.129179   -2.962796
 ---------------------------------------------------------------------
                    Distance matrix (angstroms):
                    1          2          3          4          5
     1  N    0.000000
     2  H    1.022707   0.000000
     3  C    1.469441   2.030335   0.000000
     4  H    2.119343   2.319227   1.094974   0.000000
     5  H    2.081318   2.911173   1.095274   1.767502   0.000000
     6  C    2.423296   2.719525   1.545368   2.223508   2.181987
     7  H    2.974173   2.899126   2.182838   2.412664   3.035397
     8  H    3.321573   3.760759   2.202989   2.801975   2.389390
     9  C    2.423099   2.719597   2.437000   3.363771   2.961862
    10  H    2.973757   2.899248   3.177035   3.922192   3.902917
    11  H    3.321891   3.761582   3.214868   4.205577   3.449712
    12  C    1.468986   2.030296   2.295223   3.263345   2.674276
    13  H    2.118301   2.319021   3.262539   4.116801   3.714180
    14  H    2.081258   2.911605   2.674347   3.715138   2.593023
    15  X    2.280684   2.979435   3.287762   4.218610   3.275022
    16  O    4.165664   5.122821   4.420785   5.380781   3.753207
    17  H    4.771540   5.698105   5.187798   6.103784   4.525642
    18  H    4.792137   5.777315   4.784395   5.720395   3.992080
                    6          7          8          9         10
     6  C    0.000000
     7  H    1.094728   0.000000
     8  H    1.093668   1.760634   0.000000
     9  C    1.547390   2.189151   2.211687   0.000000
    10  H    2.189057   2.322790   2.940346   1.094255   0.000000
    11  H    2.212049   2.941054   2.388102   1.094514   1.761103
    12  C    2.437656   3.177673   3.215306   1.545886   2.182598
    13  H    3.363467   3.921886   4.204948   2.223350   2.412240
    14  H    2.962773   3.904061   3.450634   2.182829   3.035577
    15  X    3.771742   4.610038   4.382841   2.902054   3.540806
    16  O    4.820706   5.892617   4.859232   4.268909   5.214268
    17  H    5.698546   6.754041   5.794191   5.084865   5.973056
    18  H    5.073419   6.166951   4.902183   4.672597   5.671087
                   11         12         13         14         15
    11  H    0.000000
    12  C    2.204077   0.000000
    13  H    2.802626   1.093918   0.000000
    14  H    2.390271   1.095960   1.767314   0.000000
    15  X    3.202019   1.483620   1.533993   1.000000   0.000000
    16  O    3.983398   3.479514   3.950620   2.383554   2.584827
    17  H    4.832734   4.135266   4.432685   3.064396   2.979367
    18  H    4.242265   4.135266   4.725326   3.064396   3.450279
                   16         17         18
    16  O    0.000000
    17  H    0.957200   0.000000
    18  H    0.957200   1.513901   0.000000
 Stoichiometry    C4H11NO
 Framework group  C1[X(C4H11NO)]
 Deg. of freedom    45
 Full point group                 C1      NOp   1
 Largest Abelian subgroup         C1      NOp   1
 Largest concise Abelian subgroup C1      NOp   1
                         Standard orientation:                         
 ---------------------------------------------------------------------
 Center     Atomic      Atomic             Coordinates (Angstroms)
 Number     Number       Type             X           Y           Z
 ---------------------------------------------------------------------
      1          7           0       -0.658339   -1.083771    0.755243
      2          1           0       -1.503921   -1.115466    1.329626
      3          6           0       -1.074607   -0.978616   -0.650076
      4          1           0       -1.840523   -1.725866   -0.882369
      5          1           0       -0.199645   -1.196749   -1.271756
      6          6           0       -1.541382    0.477412   -0.874268
      7          1           0       -2.627533    0.551505   -0.759305
      8          1           0       -1.298496    0.836406   -1.878379
      9          6           0       -0.817227    1.277433    0.234779
     10          1           0       -1.539989    1.752323    0.905218
     11          1           0       -0.180187    2.071378   -0.167455
     12          6           0       -0.000661    0.207630    0.995374
     13          1           0        0.086068    0.402478    2.068300
     14          1           0        1.014285    0.143265    0.586874
     15          8           0        3.221642    0.003279   -0.301555
     16          1           0        4.010308   -0.316651    0.136490
     17          1           0        3.518122    0.254391   -1.176354
 ---------------------------------------------------------------------
 Rotational constants (GHZ):           4.3304849           1.5775811           1.5115014
 Standard basis: 6-31G(d) (6D, 7F)
 There are   112 symmetry adapted cartesian basis functions of A   symmetry.
 There are   112 symmetry adapted basis functions of A   symmetry.
   112 basis functions,   212 primitive gaussians,   112 cartesian basis functions
    25 alpha electrons       25 beta electrons
       nuclear repulsion energy       248.4573974538 Hartrees.
 NAtoms=   17 NActive=   17 NUniq=   17 SFac= 1.00D+00 NAtFMM=   60 NAOKFM=F Big=F
 Integral buffers will be    131072 words long.
 Raffenetti 1 integral format.
 Two-electron integral symmetry is turned on.
 One-electron integrals computed using PRISM.
 NBasis=   112 RedAO= T EigKep=  3.12D-03  NBF=   112
 NBsUse=   112 1.00D-06 EigRej= -1.00D+00 NBFU=   112
 Initial guess from the checkpoint file:  "PRLD-DON-H52.chk"
 B after Tr=    -0.000000    0.000000    0.000000
         Rot=    0.999276   -0.036198    0.011554   -0.001934 Ang=  -4.36 deg.
 ExpMin= 1.61D-01 ExpMax= 5.48D+03 ExpMxC= 8.25D+02 IAcc=2 IRadAn=         4 AccDes= 0.00D+00
 Harris functional with IExCor=  205 and IRadAn=       4 diagonalized for initial guess.
 HarFok:  IExCor=  205 AccDes= 0.00D+00 IRadAn=         4 IDoV= 1 UseB2=F ITyADJ=14
 ICtDFT=  3500011 ScaDFX=  1.000000  1.000000  1.000000  1.000000
 FoFCou: FMM=F IPFlag=           0 FMFlag=      100000 FMFlg1=           0
         NFxFlg=           0 DoJE=T BraDBF=F KetDBF=T FulRan=T
         wScrn=  0.000000 ICntrl=       500 IOpCl=  0 I1Cent=   200000004 NGrid=           0
         NMat0=    1 NMatS0=      1 NMatT0=    0 NMatD0=    1 NMtDS0=    0 NMtDT0=    0
 Petite list used in FoFCou.
 Keep R1 ints in memory in canonical form, NReq=20923407.
 Requested convergence on RMS density matrix=1.00D-08 within 128 cycles.
 Requested convergence on MAX density matrix=1.00D-06.
 Requested convergence on             energy=1.00D-06.
 No special actions if energy rises.
 SCF Done:  E(RHF) =  -287.153700419     A.U. after   12 cycles
            NFock= 12  Conv=0.41D-08     -V/T= 2.0017
 Calling FoFJK, ICntrl=      2127 FMM=F ISym2X=0 I1Cent= 0 IOpClX= 0 NMat=1 NMatS=1 NMatT=0.
 ***** Axes restored to original set *****
 -------------------------------------------------------------------
 Center     Atomic                   Forces (Hartrees/Bohr)
 Number     Number              X              Y              Z
 -------------------------------------------------------------------
      1        7           0.016556128   -0.003370469    0.005949008
      2        1          -0.008984444    0.000570065   -0.012928867
      3        6          -0.005283527    0.006368400    0.001867393
      4        1          -0.002248292   -0.006973854   -0.002921969
      5        1           0.004200879   -0.000838229    0.005536252
      6        6           0.005171541    0.002558032   -0.001614871
      7        1          -0.004919453   -0.001370401   -0.003724854
      8        1          -0.001280781   -0.000120212    0.006199242
      9        6           0.001588591   -0.006114402    0.001306371
     10        1          -0.002585770    0.002329959   -0.004771042
     11        1          -0.000051822    0.004307259    0.005662104
     12        6          -0.010783995   -0.001455388   -0.001713784
     13        1           0.002691847    0.004204125   -0.004962421
     14        1           0.007109427    0.000215131    0.008009612
     15        8          -0.011322477   -0.001916573   -0.012947129
     16        1           0.010143819    0.002165072    0.000800805
     17        1          -0.000001671   -0.000558514    0.010254153
 -------------------------------------------------------------------
 Cartesian Forces:  Max     0.016556128 RMS     0.005931162
 -----------------------------------------------------------------------------------------------
                       Internal Coordinate Forces (Hartree/Bohr or radian)
  Cent   Atom   N1       Length/X         N2         Alpha/Y        N3         Beta/Z          J
 -----------------------------------------------------------------------------------------------
      1  N            0.016556(     1)     -0.003370(    19)      0.005949(    37)
      2  H           -0.008984(     2)      0.000570(    20)     -0.012929(    38)
      3  C           -0.005284(     3)      0.006368(    21)      0.001867(    39)
      4  H           -0.002248(     4)     -0.006974(    22)     -0.002922(    40)
      5  H            0.004201(     5)     -0.000838(    23)      0.005536(    41)
      6  C            0.005172(     6)      0.002558(    24)     -0.001615(    42)
      7  H           -0.004919(     7)     -0.001370(    25)     -0.003725(    43)
      8  H           -0.001281(     8)     -0.000120(    26)      0.006199(    44)
      9  C            0.001589(     9)     -0.006114(    27)      0.001306(    45)
     10  H           -0.002586(    10)      0.002330(    28)     -0.004771(    46)
     11  H           -0.000052(    11)      0.004307(    29)      0.005662(    47)
     12  C           -0.010989(    12)     -0.001495(    30)     -0.001510(    48)
     13  H            0.002599(    13)      0.004337(    31)     -0.004886(    49)
     14  H            0.006227(    14)     -0.000189(    32)      0.005838(    50)
         X       14   0.000000(    15)     12   0.000859(    33)     13   0.000354(    51)     0
     15  O       14   0.002197(    16)     15   0.000859(    34)     12  -0.000434(    52)     0
     16  H       16  -0.010211(    17)     14  -0.003533(    35)     15   0.000531(    53)     0
     17  H       16  -0.010183(    18)     14  -0.002398(    36)     15  -0.000177(    54)     0
 -----------------------------------------------------------------------------------------------
 Internal  Forces:  Max     0.016556128 RMS     0.005228149

 GradGradGradGradGradGradGradGradGradGradGradGradGradGradGradGradGradGrad
 Berny optimization.
 Search for a local minimum.
 Step number   3 out of a maximum of  100
 All quantities printed in internal units (Hartrees-Bohrs-Radians)
 Update second derivatives using D2CorN and points    3
 DE= -2.11D-03 DEPred=-1.37D-03 R= 1.53D+00
 TightC=F SS=  1.41D+00  RLast= 7.30D-01 DXNew= 8.4853D-01 2.1904D+00
 Trust test= 1.53D+00 RLast= 7.30D-01 DXMaxT set to 8.49D-01
 The second derivative matrix:
                          rAH       dih
           rAH          0.01758
           dih         -0.00098  -0.00000
 ITU=  1  1  0
 Linear search step of   1.460 exceeds DXMaxT=   0.849 but not scaled.
 Quartic linear search produced a step of  2.00000.
 Variable       Old X    -DE/DX   Delta X   Delta X   Delta X     New X
                                 (Linear)    (Quad)   (Total)
   rAH        4.50426   0.00220   0.98477   0.00000   0.98477   5.48903
   dih        0.55681   0.00035   1.07827   0.00000   1.07827   1.63508
         Item               Value     Threshold  Converged?
 Maximum Force            0.002197     0.000450     NO 
 RMS     Force            0.001573     0.000300     NO 
 Maximum Displacement     1.078269     0.001800     NO 
 RMS     Displacement     1.032578     0.001200     NO 
 Predicted change in Energy=-4.933083D-03
 GradGradGradGradGradGradGradGradGradGradGradGradGradGradGradGradGradGrad

 ---------------------------------------------------------------------------------------------------
                            Z-MATRIX (ANGSTROMS AND DEGREES)
   CD    Cent   Atom    N1       Length/X        N2       Alpha/Y        N3        Beta/Z          J
 ---------------------------------------------------------------------------------------------------
      1      1  N        0   0.844000          0.456000          0.923000
      2      2  H        0   1.372000          0.495000          1.798000
      3      3  C        0   1.643000          1.125000         -0.113000
      4      4  H        0   2.000000          2.097000          0.243000
      5      5  H        0   0.987000          1.307000         -0.971000
      6      6  C        0   2.779000          0.153000         -0.504000
      7      7  H        0   3.689000          0.384000          0.059000
      8      8  H        0   3.031000          0.222000         -1.566000
      9      9  C        0   2.231000         -1.240000         -0.112000
     10     10  H        0   2.866000         -1.707000          0.647000
     11     11  H        0   2.185000         -1.928000         -0.962000
     12     12  C        0   0.830000         -0.941000          0.469000
     13     13  H        0   0.542000         -1.609000          1.286000
     14     14  H        0   0.068000         -1.027000         -0.314000
     15         X       14   1.000000(    14)     12   90.000(    30)     13   93.683(    45)      0
     16     15  O       14   2.904672(    15)     15   90.000(    31)     12  180.000(    46)      0
     17     16  H       16   0.957200(    16)     14  127.740(    32)     15    0.000(    47)      0
     18     17  H       16   0.957200(    17)     14  127.740(    33)     15  180.000(    48)      0
 ---------------------------------------------------------------------------------------------------
                         Z-Matrix orientation:                         
 ---------------------------------------------------------------------
 Center     Atomic      Atomic             Coordinates (Angstroms)
 Number     Number       Type             X           Y           Z
 ---------------------------------------------------------------------
      1          7           0        0.844000    0.456000    0.923000
      2          1           0        1.372000    0.495000    1.798000
      3          6           0        1.643000    1.125000   -0.113000
      4          1           0        2.000000    2.097000    0.243000
      5          1           0        0.987000    1.307000   -0.971000
      6          6           0        2.779000    0.153000   -0.504000
      7          1           0        3.689000    0.384000    0.059000
      8          1           0        3.031000    0.222000   -1.566000
      9          6           0        2.231000   -1.240000   -0.112000
     10          1           0        2.866000   -1.707000    0.647000
     11          1           0        2.185000   -1.928000   -0.962000
     12          6           0        0.830000   -0.941000    0.469000
     13          1           0        0.542000   -1.609000    1.286000
     14          1           0        0.068000   -1.027000   -0.314000
     15         -1           0       -0.418228   -0.243608    0.073144
     16          8           0       -1.951562   -1.254929   -2.389219
     17          1           0       -2.726965   -0.707915   -2.514750
     18          1           0       -1.990865   -1.893892   -3.100847
 ---------------------------------------------------------------------
                    Distance matrix (angstroms):
                    1          2          3          4          5
     1  N    0.000000
     2  H    1.022707   0.000000
     3  C    1.469441   2.030335   0.000000
     4  H    2.119343   2.319227   1.094974   0.000000
     5  H    2.081318   2.911173   1.095274   1.767502   0.000000
     6  C    2.423296   2.719525   1.545368   2.223508   2.181987
     7  H    2.974173   2.899126   2.182838   2.412664   3.035397
     8  H    3.321573   3.760759   2.202989   2.801975   2.389390
     9  C    2.423099   2.719597   2.437000   3.363771   2.961862
    10  H    2.973757   2.899248   3.177035   3.922192   3.902917
    11  H    3.321891   3.761582   3.214868   4.205577   3.449712
    12  C    1.468986   2.030296   2.295223   3.263345   2.674276
    13  H    2.118301   2.319021   3.262539   4.116801   3.714180
    14  H    2.081258   2.911605   2.674347   3.715138   2.593023
    15  X    1.674791   2.593373   2.481209   3.369736   2.338651
    16  O    4.659747   5.625044   4.875050   5.811958   4.148491
    17  H    5.091621   6.070282   5.312680   6.149547   4.498509
    18  H    5.454337   6.404246   5.589804   6.560147   4.863089
                    6          7          8          9         10
     6  C    0.000000
     7  H    1.094728   0.000000
     8  H    1.093668   1.760634   0.000000
     9  C    1.547390   2.189151   2.211687   0.000000
    10  H    2.189057   2.322790   2.940346   1.094255   0.000000
    11  H    2.212049   2.941054   2.388102   1.094514   1.761103
    12  C    2.437656   3.177673   3.215306   1.545886   2.182598
    13  H    3.363467   3.921886   4.204948   2.223350   2.412240
    14  H    2.962773   3.904061   3.450634   2.182829   3.035577
    15  X    3.273020   4.154926   3.847175   2.836456   3.641013
    16  O    5.283421   6.363632   5.261648   4.762329   5.712434
    17  H    5.924520   6.998648   5.909232   5.535136   6.502006
    18  H    5.803877   6.887255   5.661438   5.213916   6.137623
                   11         12         13         14         15
    11  H    0.000000
    12  C    2.204077   0.000000
    13  H    2.802626   1.093918   0.000000
    14  H    2.390271   1.095960   1.767314   0.000000
    15  X    3.268867   1.483620   2.063335   1.000000   0.000000
    16  O    4.427316   4.000632   4.455385   2.904672   3.071989
    17  H    5.294057   4.648558   5.093504   3.571686   3.499006
    18  H    4.691873   4.648558   5.073558   3.571686   3.907793
                   16         17         18
    16  O    0.000000
    17  H    0.957200   0.000000
    18  H    0.957200   1.513901   0.000000
 Stoichiometry    C4H11NO
 Framework group  C1[X(C4H11NO)]
 Deg. of freedom    45
 Full point group                 C1      NOp   1
 Largest Abelian subgroup         C1      NOp   1
 Largest concise Abelian subgroup C1      NOp   1
                         Standard orientation:                         
 ---------------------------------------------------------------------
 Center     Atomic      Atomic             Coordinates (Angstroms)
 Number     Number       Type             X           Y           Z
 ---------------------------------------------------------------------
      1          7           0       -0.792570   -1.046509    0.798981
      2          1           0       -1.669954   -1.059365    1.324301
      3          6           0       -1.126935   -1.011011   -0.631473
      4          1           0       -1.872958   -1.775507   -0.872228
      5          1           0       -0.215782   -1.249629   -1.190477
      6          6           0       -1.589655    0.428481   -0.950711
      7          1           0       -2.681134    0.497571   -0.902445
      8          1           0       -1.291093    0.742499   -1.954884
      9          6           0       -0.936769    1.286217    0.159445
     10          1           0       -1.700557    1.785018    0.763779
     11          1           0       -0.282738    2.066518   -0.242218
     12          6           0       -0.158722    0.260862    1.015631
     13          1           0       -0.135981    0.506391    2.081396
     14          1           0        0.878714    0.187113    0.670065
     15          8           0        3.628277   -0.008349   -0.245803
     16          1           0        4.171328   -0.794299   -0.305876
     17          1           0        4.194419    0.698751   -0.555198
 ---------------------------------------------------------------------
 Rotational constants (GHZ):           4.2548515           1.3207245           1.2749617
 Standard basis: 6-31G(d) (6D, 7F)
 There are   112 symmetry adapted cartesian basis functions of A   symmetry.
 There are   112 symmetry adapted basis functions of A   symmetry.
   112 basis functions,   212 primitive gaussians,   112 cartesian basis functions
    25 alpha electrons       25 beta electrons
       nuclear repulsion energy       243.3322807923 Hartrees.
 NAtoms=   17 NActive=   17 NUniq=   17 SFac= 1.00D+00 NAtFMM=   60 NAOKFM=F Big=F
 Integral buffers will be    131072 words long.
 Raffenetti 1 integral format.
 Two-electron integral symmetry is turned on.
 One-electron integrals computed using PRISM.
 NBasis=   112 RedAO= T EigKep=  3.14D-03  NBF=   112
 NBsUse=   112 1.00D-06 EigRej= -1.00D+00 NBFU=   112
 Initial guess from the checkpoint file:  "PRLD-DON-H52.chk"
 B after Tr=     0.000000   -0.000000   -0.000000
         Rot=    0.999689    0.017601    0.017660   -0.000605 Ang=   2.86 deg.
 ExpMin= 1.61D-01 ExpMax= 5.48D+03 ExpMxC= 8.25D+02 IAcc=2 IRadAn=         4 AccDes= 0.00D+00
 Harris functional with IExCor=  205 and IRadAn=       4 diagonalized for initial guess.
 HarFok:  IExCor=  205 AccDes= 0.00D+00 IRadAn=         4 IDoV= 1 UseB2=F ITyADJ=14
 ICtDFT=  3500011 ScaDFX=  1.000000  1.000000  1.000000  1.000000
 FoFCou: FMM=F IPFlag=           0 FMFlag=      100000 FMFlg1=           0
         NFxFlg=           0 DoJE=T BraDBF=F KetDBF=T FulRan=T
         wScrn=  0.000000 ICntrl=       500 IOpCl=  0 I1Cent=   200000004 NGrid=           0
         NMat0=    1 NMatS0=      1 NMatT0=    0 NMatD0=    1 NMtDS0=    0 NMtDT0=    0
 Petite list used in FoFCou.
 Keep R1 ints in memory in canonical form, NReq=20922105.
 Requested convergence on RMS density matrix=1.00D-08 within 128 cycles.
 Requested convergence on MAX density matrix=1.00D-06.
 Requested convergence on             energy=1.00D-06.
 No special actions if energy rises.
 SCF Done:  E(RHF) =  -287.154630505     A.U. after   13 cycles
            NFock= 13  Conv=0.42D-08     -V/T= 2.0018
 Calling FoFJK, ICntrl=      2127 FMM=F ISym2X=0 I1Cent= 0 IOpClX= 0 NMat=1 NMatS=1 NMatT=0.
 ***** Axes restored to original set *****
 -------------------------------------------------------------------
 Center     Atomic                   Forces (Hartrees/Bohr)
 Number     Number              X              Y              Z
 -------------------------------------------------------------------
      1        7           0.016279048   -0.003847539    0.005451858
      2        1          -0.009239896    0.000328472   -0.012894385
      3        6          -0.005061195    0.006544945    0.001543517
      4        1          -0.002306536   -0.007054301   -0.002886162
      5        1           0.004337048   -0.000800495    0.005472136
      6        6           0.005219213    0.002681079   -0.001777651
      7        1          -0.004968715   -0.001422192   -0.003674073
      8        1          -0.001422514   -0.000164529    0.006332666
      9        6           0.001472244   -0.006110981    0.000727075
     10        1          -0.002887700    0.002349652   -0.004667227
     11        1           0.000031455    0.004383682    0.005699685
     12        6          -0.009450700   -0.001057805   -0.000032986
     13        1           0.002336267    0.004290709   -0.005455780
     14        1           0.005377808    0.000016679    0.006250599
     15        8          -0.010134955   -0.001536565   -0.011290752
     16        1           0.008866065   -0.004908167    0.003002996
     17        1           0.001553063    0.006307357    0.008198485
 -------------------------------------------------------------------
 Cartesian Forces:  Max     0.016279048 RMS     0.005701752
 -----------------------------------------------------------------------------------------------
                       Internal Coordinate Forces (Hartree/Bohr or radian)
  Cent   Atom   N1       Length/X         N2         Alpha/Y        N3         Beta/Z          J
 -----------------------------------------------------------------------------------------------
      1  N            0.016279(     1)     -0.003848(    19)      0.005452(    37)
      2  H           -0.009240(     2)      0.000328(    20)     -0.012894(    38)
      3  C           -0.005061(     3)      0.006545(    21)      0.001544(    39)
      4  H           -0.002307(     4)     -0.007054(    22)     -0.002886(    40)
      5  H            0.004337(     5)     -0.000800(    23)      0.005472(    41)
      6  C            0.005219(     6)      0.002681(    24)     -0.001778(    42)
      7  H           -0.004969(     7)     -0.001422(    25)     -0.003674(    43)
      8  H           -0.001423(     8)     -0.000165(    26)      0.006333(    44)
      9  C            0.001472(     9)     -0.006111(    27)      0.000727(    45)
     10  H           -0.002888(    10)      0.002350(    28)     -0.004667(    46)
     11  H            0.000031(    11)      0.004384(    29)      0.005700(    47)
     12  C           -0.009682(    12)     -0.001027(    30)      0.000188(    48)
     13  H            0.002342(    13)      0.004282(    31)     -0.005461(    49)
     14  H            0.005887(    14)     -0.000143(    32)      0.005945(    50)
         X       14  -0.000000(    15)     12   0.000428(    33)     13  -0.000023(    51)     0
     15  O       14  -0.000123(    16)     15   0.000428(    34)     12   0.000479(    52)     0
     16  H       16  -0.010381(    17)     14  -0.003593(    35)     15  -0.000119(    53)     0
     17  H       16  -0.010369(    18)     14  -0.002482(    36)     15   0.000096(    54)     0
 -----------------------------------------------------------------------------------------------
 Internal  Forces:  Max     0.016279048 RMS     0.005174257

 GradGradGradGradGradGradGradGradGradGradGradGradGradGradGradGradGradGrad
 Berny optimization.
 Search for a local minimum.
 Step number   4 out of a maximum of  100
 All quantities printed in internal units (Hartrees-Bohrs-Radians)
 Update second derivatives using D2CorN and points    4
 The second derivative matrix:
                          rAH       dih
           rAH          0.01758
           dih         -0.00098  -0.00000
 ITU=  0  1  1
     Eigenvalues ---   -0.00006   0.01763
 RFO step:  Lambda=-8.71568137D-05 EMin=-5.72621041D-05
 Quartic linear search produced a step of -0.10691.
 Maximum step size (   0.849) exceeded in Quadratic search.
    -- Step size scaled by   0.498
 Variable       Old X    -DE/DX   Delta X   Delta X   Delta X     New X
                                 (Linear)    (Quad)   (Total)
   rAH        5.48903  -0.00012  -0.10528  -0.04553  -0.15081   5.33822
   dih        1.63508  -0.00002  -0.11528  -0.84731  -0.96258   0.67250
         Item               Value     Threshold  Converged?
 Maximum Force            0.000123     0.000450     YES
 RMS     Force            0.000088     0.000300     YES
 Maximum Displacement     0.962581     0.001800     NO 
 RMS     Displacement     0.688951     0.001200     NO 
 Predicted change in Energy=-1.527998D-05
 GradGradGradGradGradGradGradGradGradGradGradGradGradGradGradGradGradGrad

 ---------------------------------------------------------------------------------------------------
                            Z-MATRIX (ANGSTROMS AND DEGREES)
   CD    Cent   Atom    N1       Length/X        N2       Alpha/Y        N3        Beta/Z          J
 ---------------------------------------------------------------------------------------------------
      1      1  N        0   0.844000          0.456000          0.923000
      2      2  H        0   1.372000          0.495000          1.798000
      3      3  C        0   1.643000          1.125000         -0.113000
      4      4  H        0   2.000000          2.097000          0.243000
      5      5  H        0   0.987000          1.307000         -0.971000
      6      6  C        0   2.779000          0.153000         -0.504000
      7      7  H        0   3.689000          0.384000          0.059000
      8      8  H        0   3.031000          0.222000         -1.566000
      9      9  C        0   2.231000         -1.240000         -0.112000
     10     10  H        0   2.866000         -1.707000          0.647000
     11     11  H        0   2.185000         -1.928000         -0.962000
     12     12  C        0   0.830000         -0.941000          0.469000
     13     13  H        0   0.542000         -1.609000          1.286000
     14     14  H        0   0.068000         -1.027000         -0.314000
     15         X       14   1.000000(    14)     12   90.000(    30)     13   38.531(    45)      0
     16     15  O       14   2.824866(    15)     15   90.000(    31)     12  180.000(    46)      0
     17     16  H       16   0.957200(    16)     14  127.740(    32)     15    0.000(    47)      0
     18     17  H       16   0.957200(    17)     14  127.740(    33)     15  180.000(    48)      0
 ---------------------------------------------------------------------------------------------------
                         Z-Matrix orientation:                         
 ---------------------------------------------------------------------
 Center     Atomic      Atomic             Coordinates (Angstroms)
 Number     Number       Type             X           Y           Z
 ---------------------------------------------------------------------
      1          7           0        0.844000    0.456000    0.923000
      2          1           0        1.372000    0.495000    1.798000
      3          6           0        1.643000    1.125000   -0.113000
      4          1           0        2.000000    2.097000    0.243000
      5          1           0        0.987000    1.307000   -0.971000
      6          6           0        2.779000    0.153000   -0.504000
      7          1           0        3.689000    0.384000    0.059000
      8          1           0        3.031000    0.222000   -1.566000
      9          6           0        2.231000   -1.240000   -0.112000
     10          1           0        2.866000   -1.707000    0.647000
     11          1           0        2.185000   -1.928000   -0.962000
     12          6           0        0.830000   -0.941000    0.469000
[...]
                                 (Linear)    (Quad)   (Total)
   rAH        5.36406  -0.00000  -0.00251   0.00091  -0.00161   5.36245
   dih        1.58707  -0.00000  -0.00338  -0.00129  -0.00467   1.58240
         Item               Value     Threshold  Converged?
 Maximum Force            0.000002     0.000450     YES
 RMS     Force            0.000002     0.000300     YES
 Maximum Displacement     0.004669     0.001800     NO 
 RMS     Displacement     0.003492     0.001200     NO 
 Predicted change in Energy=-6.817728D-09
 Optimization completed on the basis of negligible forces.
    -- Stationary point found.
                       ----------------------------
                       !   Optimized Parameters   !
                       ! (Angstroms and Degrees)  !
 ----------------------                            ----------------------
 !      Name          Value   Derivative information (Atomic Units)     !
 ------------------------------------------------------------------------
 !       rAH         2.8385   -DE/DX =    0.0                           !
 !       dih        90.9324   -DE/DX =    0.0                           !
 ------------------------------------------------------------------------
 GradGradGradGradGradGradGradGradGradGradGradGradGradGradGradGradGradGrad

 ---------------------------------------------------------------------------------------------------
                            Z-MATRIX (ANGSTROMS AND DEGREES)
   CD    Cent   Atom    N1       Length/X        N2       Alpha/Y        N3        Beta/Z          J
 ---------------------------------------------------------------------------------------------------
      1      1  N        0   0.844000          0.456000          0.923000
      2      2  H        0   1.372000          0.495000          1.798000
      3      3  C        0   1.643000          1.125000         -0.113000
      4      4  H        0   2.000000          2.097000          0.243000
      5      5  H        0   0.987000          1.307000         -0.971000
      6      6  C        0   2.779000          0.153000         -0.504000
      7      7  H        0   3.689000          0.384000          0.059000
      8      8  H        0   3.031000          0.222000         -1.566000
      9      9  C        0   2.231000         -1.240000         -0.112000
     10     10  H        0   2.866000         -1.707000          0.647000
     11     11  H        0   2.185000         -1.928000         -0.962000
     12     12  C        0   0.830000         -0.941000          0.469000
     13     13  H        0   0.542000         -1.609000          1.286000
     14     14  H        0   0.068000         -1.027000         -0.314000
     15         X       14   1.000000(    14)     12   90.000(    30)     13   90.932(    45)      0
     16     15  O       14   2.838538(    15)     15   90.000(    31)     12  180.000(    46)      0
     17     16  H       16   0.957200(    16)     14  127.740(    32)     15    0.000(    47)      0
     18     17  H       16   0.957200(    17)     14  127.740(    33)     15  180.000(    48)      0
 ---------------------------------------------------------------------------------------------------
                         Z-Matrix orientation:                         
 ---------------------------------------------------------------------
 Center     Atomic      Atomic             Coordinates (Angstroms)
 Number     Number       Type             X           Y           Z
 ---------------------------------------------------------------------
      1          7           0        0.844000    0.456000    0.923000
      2          1           0        1.372000    0.495000    1.798000
      3          6           0        1.643000    1.125000   -0.113000
      4          1           0        2.000000    2.097000    0.243000
      5          1           0        0.987000    1.307000   -0.971000
      6          6           0        2.779000    0.153000   -0.504000
      7          1           0        3.689000    0.384000    0.059000
      8          1           0        3.031000    0.222000   -1.566000
      9          6           0        2.231000   -1.240000   -0.112000
     10          1           0        2.866000   -1.707000    0.647000
     11          1           0        2.185000   -1.928000   -0.962000
     12          6           0        0.830000   -0.941000    0.469000
     13          1           0        0.542000   -1.609000    1.286000
     14          1           0        0.068000   -1.027000   -0.314000
     15         -1           0       -0.443069   -0.274099    0.100668
     16          8           0       -1.905581   -1.249740   -2.341971
     17          1           0       -2.699787   -0.725806   -2.446667
     18          1           0       -1.926080   -1.865623   -3.074433
 ---------------------------------------------------------------------
                    Distance matrix (angstroms):
                    1          2          3          4          5
     1  N    0.000000
     2  H    1.022707   0.000000
     3  C    1.469441   2.030335   0.000000
     4  H    2.119343   2.319227   1.094974   0.000000
     5  H    2.081318   2.911173   1.095274   1.767502   0.000000
     6  C    2.423296   2.719525   1.545368   2.223508   2.181987
     7  H    2.974173   2.899126   2.182838   2.412664   3.035397
     8  H    3.321573   3.760759   2.202989   2.801975   2.389390
     9  C    2.423099   2.719597   2.437000   3.363771   2.961862
    10  H    2.973757   2.899248   3.177035   3.922192   3.902917
    11  H    3.321891   3.761582   3.214868   4.205577   3.449712
    12  C    1.468986   2.030296   2.295223   3.263345   2.674276
    13  H    2.118301   2.319021   3.262539   4.116801   3.714180
    14  H    2.081258   2.911605   2.674347   3.715138   2.593023
    15  X    1.692873   2.601331   2.520876   3.407485   2.386093
    16  O    4.596714   5.561116   4.816651   5.756414   4.096768
    17  H    5.030879   6.007247   5.266050   6.106598   4.461198
    18  H    5.389132   6.339595   5.518355   6.490134   4.793328
                    6          7          8          9         10
     6  C    0.000000
     7  H    1.094728   0.000000
     8  H    1.093668   1.760634   0.000000
     9  C    1.547390   2.189151   2.211687   0.000000
    10  H    2.189057   2.322790   2.940346   1.094255   0.000000
    11  H    2.212049   2.941054   2.388102   1.094514   1.761103
    12  C    2.437656   3.177673   3.215306   1.545886   2.182598
    13  H    3.363467   3.921886   4.204948   2.223350   2.412240
    14  H    2.962773   3.904061   3.450634   2.182829   3.035577
    15  X    3.306019   4.184354   3.884977   2.851111   3.647138
    16  O    5.224090   6.303420   5.209412   4.699379   5.648984
    17  H    5.879061   6.951736   5.875017   5.479756   6.442942
    18  H    5.728851   6.812365   5.586249   5.142832   6.069452
                   11         12         13         14         15
    11  H    0.000000
    12  C    2.204077   0.000000
    13  H    2.802626   1.093918   0.000000
    14  H    2.390271   1.095960   1.767314   0.000000
    15  X    3.281980   1.483620   2.038954   1.000000   0.000000
    16  O    4.370035   3.934499   4.391115   2.838538   3.009535
    17  H    5.245060   4.583320   5.022153   3.507083   3.433035
    18  H    4.622471   4.583320   5.017036   3.507083   3.848835
                   16         17         18
    16  O    0.000000
    17  H    0.957200   0.000000
    18  H    0.957200   1.513901   0.000000
 Stoichiometry    C4H11NO
 Framework group  C1[X(C4H11NO)]
 Deg. of freedom    45
 Full point group                 C1      NOp   1
 Largest Abelian subgroup         C1      NOp   1
 Largest concise Abelian subgroup C1      NOp   1
                         Standard orientation:                         
 ---------------------------------------------------------------------
 Center     Atomic      Atomic             Coordinates (Angstroms)
 Number     Number       Type             X           Y           Z
 ---------------------------------------------------------------------
      1          7           0       -0.776249   -1.053595    0.790331
      2          1           0       -1.650388   -1.070206    1.320929
      3          6           0       -1.119395   -1.005112   -0.637660
      4          1           0       -1.867706   -1.766693   -0.880545
      5          1           0       -0.211964   -1.239701   -1.204371
      6          6           0       -1.582539    0.437615   -0.941302
      7          1           0       -2.673626    0.507381   -0.885683
      8          1           0       -1.289844    0.760196   -1.944487
      9          6           0       -0.921900    1.284839    0.172333
     10          1           0       -1.681411    1.779052    0.785759
     11          1           0       -0.269527    2.067998   -0.226454
     12          6           0       -0.139680    0.251167    1.014602
     13          1           0       -0.110101    0.487240    2.082334
     14          1           0        0.895525    0.179425    0.661993
     15          8           0        3.576707   -0.006389   -0.251263
     16          1           0        4.130464   -0.786290   -0.287844
     17          1           0        4.129756    0.696808   -0.591678
 ---------------------------------------------------------------------
 Rotational constants (GHZ):           4.2625243           1.3505435           1.3020426

 **********************************************************************

            Population analysis using the SCF density.

 **********************************************************************

 Orbital symmetries:
       Occupied  (A) (A) (A) (A) (A) (A) (A) (A) (A) (A) (A) (A)
                 (A) (A) (A) (A) (A) (A) (A) (A) (A) (A) (A) (A)
                 (A)
       Virtual   (A) (A) (A) (A) (A) (A) (A) (A) (A) (A) (A) (A)
                 (A) (A) (A) (A) (A) (A) (A) (A) (A) (A) (A) (A)
                 (A) (A) (A) (A) (A) (A) (A) (A) (A) (A) (A) (A)
                 (A) (A) (A) (A) (A) (A) (A) (A) (A) (A) (A) (A)
                 (A) (A) (A) (A) (A) (A) (A) (A) (A) (A) (A) (A)
                 (A) (A) (A) (A) (A) (A) (A) (A) (A) (A) (A) (A)
                 (A) (A) (A) (A) (A) (A) (A) (A) (A) (A) (A) (A)
                 (A) (A) (A)
 The electronic state is 1-A.
 Alpha  occ. eigenvalues --  -20.56343 -15.52980 -11.23234 -11.22641 -11.20944
 Alpha  occ. eigenvalues --  -11.20772  -1.34432  -1.20527  -1.00908  -0.95752
 Alpha  occ. eigenvalues --   -0.80239  -0.77298  -0.70940  -0.66404  -0.62656
 Alpha  occ. eigenvalues --   -0.57952  -0.57695  -0.56846  -0.50062  -0.49506
 Alpha  occ. eigenvalues --   -0.48088  -0.46866  -0.46558  -0.44628  -0.36158
 Alpha virt. eigenvalues --    0.20406   0.22325   0.26214   0.29542   0.30104
 Alpha virt. eigenvalues --    0.30377   0.31796   0.33559   0.34855   0.36003
 Alpha virt. eigenvalues --    0.37466   0.39090   0.42085   0.42532   0.49595
 Alpha virt. eigenvalues --    0.53534   0.73888   0.77258   0.77714   0.80783
 Alpha virt. eigenvalues --    0.81369   0.84988   0.91540   0.93075   0.93700
 Alpha virt. eigenvalues --    0.95850   1.02054   1.02775   1.03359   1.07557
 Alpha virt. eigenvalues --    1.11012   1.13066   1.14085   1.14945   1.15985
 Alpha virt. eigenvalues --    1.16379   1.16912   1.18326   1.21213   1.21990
 Alpha virt. eigenvalues --    1.23761   1.24764   1.25191   1.37854   1.39808
 Alpha virt. eigenvalues --    1.43829   1.51302   1.53847   1.60429   1.61398
 Alpha virt. eigenvalues --    1.70525   1.92115   2.01865   2.03121   2.03970
 Alpha virt. eigenvalues --    2.06493   2.09920   2.13323   2.14787   2.21018
 Alpha virt. eigenvalues --    2.23887   2.30150   2.32825   2.36196   2.43457
 Alpha virt. eigenvalues --    2.44408   2.44575   2.52151   2.58399   2.60508
 Alpha virt. eigenvalues --    2.62462   2.72525   2.74834   2.82857   2.91089
 Alpha virt. eigenvalues --    2.94480   2.96741   2.98992   2.99943   3.03917
 Alpha virt. eigenvalues --    3.25228   3.99865   4.36207   4.61886   4.70267
 Alpha virt. eigenvalues --    4.88260   5.05936
          Condensed to atoms (all electrons):
               1          2          3          4          5          6
     1  N    7.061231   0.326610   0.296376  -0.033831  -0.046748  -0.085631
     2  H    0.326610   0.440845  -0.043134  -0.005562   0.005743  -0.000767
     3  C    0.296376  -0.043134   4.974341   0.402780   0.405819   0.335008
     4  H   -0.033831  -0.005562   0.402780   0.529953  -0.026968  -0.036067
     5  H   -0.046748   0.005743   0.405819  -0.026968   0.540301  -0.053093
     6  C   -0.085631  -0.000767   0.335008  -0.036067  -0.053093   5.203509
     7  H    0.002708   0.000978  -0.038639  -0.004323   0.003842   0.395208
     8  H    0.004410  -0.000025  -0.032247   0.001394  -0.002477   0.390809
     9  C   -0.084904  -0.000720  -0.061883   0.003907  -0.000461   0.322524
    10  H    0.002693   0.001026   0.003297  -0.000165  -0.000013  -0.039079
    11  H    0.004384  -0.000025   0.002978  -0.000065   0.000172  -0.033361
    12  C    0.287926  -0.042733  -0.093357   0.006142  -0.001513  -0.060949
    13  H   -0.034210  -0.005524   0.006200  -0.000120  -0.000169   0.003959
    14  H   -0.043443   0.005221  -0.001962  -0.000146   0.003117  -0.000454
    15  O    0.000012  -0.000000  -0.000013   0.000000   0.000063   0.000001
    16  H   -0.000002   0.000000   0.000001  -0.000000   0.000001  -0.000000
    17  H   -0.000001   0.000000   0.000000  -0.000000  -0.000001  -0.000000
               7          8          9         10         11         12
     1  N    0.002708   0.004410  -0.084904   0.002693   0.004384   0.287926
     2  H    0.000978  -0.000025  -0.000720   0.001026  -0.000025  -0.042733
     3  C   -0.038639  -0.032247  -0.061883   0.003297   0.002978  -0.093357
     4  H   -0.004323   0.001394   0.003907  -0.000165  -0.000065   0.006142
     5  H    0.003842  -0.002477  -0.000461  -0.000013   0.000172  -0.001513
     6  C    0.395208   0.390809   0.322524  -0.039079  -0.033361  -0.060949
     7  H    0.549391  -0.026587  -0.038683  -0.006463   0.002657   0.003234
     8  H   -0.026587   0.531497  -0.033205   0.002663  -0.003720   0.002946
     9  C   -0.038683  -0.033205   5.204344   0.394947   0.391227   0.330043
    10  H   -0.006463   0.002663   0.394947   0.551538  -0.026658  -0.038545
    11  H    0.002657  -0.003720   0.391227  -0.026658   0.529839  -0.031937
    12  C    0.003234   0.002946   0.330043  -0.038545  -0.031937   5.009674
    13  H   -0.000165  -0.000065  -0.036840  -0.004263   0.001349   0.402082
    14  H   -0.000012   0.000146  -0.049263   0.003494  -0.002152   0.404764
    15  O   -0.000000  -0.000000   0.000019  -0.000000   0.000002  -0.001455
    16  H    0.000000   0.000000  -0.000001   0.000000  -0.000000   0.000064
    17  H    0.000000   0.000000  -0.000003   0.000000   0.000001   0.000065
              13         14         15         16         17
     1  N   -0.034210  -0.043443   0.000012  -0.000002  -0.000001
     2  H   -0.005524   0.005221  -0.000000   0.000000   0.000000
     3  C    0.006200  -0.001962  -0.000013   0.000001   0.000000
     4  H   -0.000120  -0.000146   0.000000  -0.000000  -0.000000
     5  H   -0.000169   0.003117   0.000063   0.000001  -0.000001
     6  C    0.003959  -0.000454   0.000001  -0.000000  -0.000000
     7  H   -0.000165  -0.000012  -0.000000   0.000000   0.000000
     8  H   -0.000065   0.000146  -0.000000   0.000000   0.000000
     9  C   -0.036840  -0.049263   0.000019  -0.000001  -0.000003
    10  H   -0.004263   0.003494  -0.000000   0.000000   0.000000
    11  H    0.001349  -0.002152   0.000002  -0.000000   0.000001
    12  C    0.402082   0.404764  -0.001455   0.000064   0.000065
    13  H    0.530035  -0.023826   0.000005  -0.000001  -0.000001
    14  H   -0.023826   0.489643   0.006342  -0.000187  -0.000189
    15  O    0.000005   0.006342   8.329594   0.265115   0.264333
    16  H   -0.000001  -0.000187   0.265115   0.316741  -0.018299
    17  H   -0.000001  -0.000189   0.264333  -0.018299   0.320515
 Mulliken charges:
               1
     1  N   -0.657579
     2  H    0.318070
     3  C   -0.155565
     4  H    0.163072
     5  H    0.172384
     6  C   -0.341618
     7  H    0.156854
     8  H    0.164460
     9  C   -0.341049
    10  H    0.155526
    11  H    0.165308
    12  C   -0.176451
    13  H    0.161553
    14  H    0.208908
    15  O   -0.864019
    16  H    0.436568
    17  H    0.433578
 Sum of Mulliken charges =  -0.00000
 Mulliken charges with hydrogens summed into heavy atoms:
               1
     1  N   -0.339509
     3  C    0.179891
     6  C   -0.020304
     9  C   -0.020215
    12  C    0.194010
    15  O    0.006127
 Electronic spatial extent (au):  <R**2>=           1007.0281
 Charge=             -0.0000 electrons
 Dipole moment (field-independent basis, Debye):
    X=              1.5153    Y=              1.0119    Z=             -1.0783  Tot=              2.1173
 Quadrupole moment (field-independent basis, Debye-Ang):
   XX=            -20.4185   YY=            -40.1331   ZZ=            -38.6706
   XY=              0.5549   XZ=             -5.0031   YZ=              1.3798
 Traceless Quadrupole moment (field-independent basis, Debye-Ang):
   XX=             12.6556   YY=             -7.0591   ZZ=             -5.5965
   XY=              0.5549   XZ=             -5.0031   YZ=              1.3798
 Octapole moment (field-independent basis, Debye-Ang**2):
  XXX=            106.6955  YYY=              2.1695  ZZZ=              1.6777  XYY=             15.8922
  XXY=             -7.3229  XXZ=            -13.9550  XZZ=              5.1712  YZZ=              1.2862
  YYZ=             -4.8153  XYZ=             -2.0032
 Hexadecapole moment (field-independent basis, Debye-Ang**3):
 XXXX=           -322.2438 YYYY=           -243.8570 ZZZZ=           -190.1904 XXXY=             -4.0168
 XXXZ=            -95.9331 YYYX=              3.8576 YYYZ=              4.7727 ZZZX=            -14.3166
 ZZZY=             -0.6431 XXYY=           -130.4841 XXZZ=           -160.2964 YYZZ=            -74.1593
 XXYZ=             -9.6725 YYXZ=             -7.6643 ZZXY=              4.0654
 N-N= 2.439231325863D+02 E-N=-1.160794065167D+03  KE= 2.866471127890D+02
 1\1\GINC-C405-061\FOpt\RHF\6-31G(d)\C4H11N1O1\TG455515\31-Mar-2021\1\\
 # HF/6-31G* Opt=(Z-matrix,MaxCycles=100) Geom=PrintInputOrient\\<qmtoo
 l> simtype="Geometry optimization" </qmtool> PRLD-DON-H52\\0,1\N,0,0.8
 439999819,0.4560000002,0.9229999781\H,0,1.371999979,0.4950000048,1.797
 9999781\C,0,1.6430000067,1.125,-0.112999998\H,0,2.,2.0969998837,0.2430
 000007\H,0,0.9869999886,1.307000041,-0.9710000157\C,0,2.7790000439,0.1
 529999971,-0.5040000081\H,0,3.6889998913,0.3840000033,0.0590000004\H,0
 ,3.0309998989,0.2220000029,-1.5659999847\C,0,2.2309999466,-1.240000009
 5,-0.1120000035\H,0,2.8659999371,-1.7070000172,0.6470000148\H,0,2.1849
 999428,-1.9279999733,-0.9620000124\C,0,0.8299999833,-0.9409999847,0.46
 90000117\H,0,0.5419999957,-1.6089999676,1.2860000134\H,0,0.0680000037,
 -1.0269999504,-0.3140000105\X,14,1.,12,90.,13,dih,0\O,14,rAH,15,90.,12
 ,180.,0\H,16,0.9572,14,127.74,15,0.,0\H,16,0.9572,14,127.74,15,180.,0\
 \rAH=2.83853841\dih=90.93240825\\Version=ES64L-G16RevA.03\State=1-A\HF
 =-287.1546392\RMSD=2.638e-09\RMSF=5.717e-03\Dipole=-0.1643107,-0.33113
 15,-0.7464862\Quadrupole=2.0606927,-3.7927888,1.7320961,2.3000335,7.98
 45533,1.3761349\PG=C01 [X(C4H11N1O1)]\\@


 You don't have to suffer to be a poet.
 Adolescence is enough suffering for anyone.
                             -- John Ciardi
 Job cpu time:       0 days  0 hours  4 minutes  8.4 seconds.
 Elapsed time:       0 days  0 hours  4 minutes  3.6 seconds.
 File lengths (MBytes):  RWF=     10 Int=      0 D2E=      0 Chk=      2 Scr=      1
 Normal termination of Gaussian 16 at Wed Mar 31 17:12:02 2021.
