 Entering Gaussian System, Link 0=g16
 Initial command:
 /home1/apps/gaussian/16rA.03/g16/l1.exe "/tmp/Gau-266579.inp" -scrdir="/tmp/"
 Entering Link 1 = /home1/apps/gaussian/16rA.03/g16/l1.exe PID=    266580.
  
 Copyright (c) 1988,1990,1992,1993,1995,1998,2003,2009,2016,
            Gaussian, Inc.  All Rights Reserved.
  
 This is part of the Gaussian(R) 16 program.  It is based on
 the Gaussian(R) 09 system (copyright 2009, Gaussian, Inc.),
 the Gaussian(R) 03 system (copyright 2003, Gaussian, Inc.),
 the Gaussian(R) 98 system (copyright 1998, Gaussian, Inc.),
 the Gaussian(R) 94 system (copyright 1995, Gaussian, Inc.),
 the Gaussian 92(TM) system (copyright 1992, Gaussian, Inc.),
 the Gaussian 90(TM) system (copyright 1990, Gaussian, Inc.),
 the Gaussian 88(TM) system (copyright 1988, Gaussian, Inc.),
 the Gaussian 86(TM) system (copyright 1986, Carnegie Mellon
 University), and the Gaussian 82(TM) system (copyright 1983,
 Carnegie Mellon University). Gaussian is a federally registered
 trademark of Gaussian, Inc.
  
 This software contains proprietary and confidential information,
 including trade secrets, belonging to Gaussian, Inc.
  
 This software is provided under written license and may be
 used, copied, transmitted, or stored only in accord with that
 written license.
  
 The following legend is applicable only to US Government
 contracts under FAR:
  
                    RESTRICTED RIGHTS LEGEND
  
 Use, reproduction and disclosure by the US Government is
 subject to restrictions as set forth in subparagraphs (a)
 and (c) of the Commercial Computer Software - Restricted
 Rights clause in FAR 52.227-19.
  
 Gaussian, Inc.
 340 Quinnipiac St., Bldg. 40, Wallingford CT 06492
  
  
 ---------------------------------------------------------------
 Warning -- This program may not be used in any manner that
 competes with the business of Gaussian, Inc. or will provide
 assistance to any competitor of Gaussian, Inc.  The licensee
 of this program is prohibited from giving any competitor of
 Gaussian, Inc. access to this program.  By using this program,
 the user acknowledges that Gaussian, Inc. is engaged in the
 business of creating and licensing software in the field of
 computational chemistry and represents and warrants to the
 licensee that it is not a competitor of Gaussian, Inc. and that
 it will not use this program in any manner prohibited above.
 ---------------------------------------------------------------
  

 Cite this work as:
 Gaussian 16, Revision A.03,
 M. J. Frisch, G. W. Trucks, H. B. Schlegel, G. E. Scuseria, 
 M. A. Robb, J. R. Cheeseman, G. Scalmani, V. Barone, 
 G. A. Petersson, H. Nakatsuji, X. Li, M. Caricato, A. V. Marenich, 
 J. Bloino, B. G. Janesko, R. Gomperts, B. Mennucci, H. P. Hratchian, 
 J. V. Ortiz, A. F. Izmaylov, J. L. Sonnenberg, D. Williams-Young, 
 F. Ding, F. Lipparini, F. Egidi, J. Goings, B. Peng, A. Petrone, 
 T. Henderson, D. Ranasinghe, V. G. Zakrzewski, J. Gao, N. Rega, 
 G. Zheng, W. Liang, M. Hada, M. Ehara, K. Toyota, R. Fukuda, 
 J. Hasegawa, M. Ishida, T. Nakajima, Y. Honda, O. Kitao, H. Nakai, 
 T. Vreven, K. Throssell, J. A. Montgomery, Jr., J. E. Peralta, 
 F. Ogliaro, M. J. Bearpark, J. J. Heyd, E. N. Brothers, K. N. Kudin, 
 V. N. Staroverov, T. A. Keith, R. Kobayashi, J. Normand, 
 K. Raghavachari, A. P. Rendell, J. C. Burant, S. S. Iyengar, 
 J. Tomasi, M. Cossi, J. M. Millam, M. Klene, C. Adamo, R. Cammi, 
 J. W. Ochterski, R. L. Martin, K. Morokuma, O. Farkas, 
 J. B. Foresman, and D. J. Fox, Gaussian, Inc., Wallingford CT, 2016.
 
 ******************************************
 Gaussian 16:  ES64L-G16RevA.03 25-Dec-2016
                31-Mar-2021 
 ******************************************
 %chk=PRLD-DON-H22.chk
 %nproc=1
 Will use up to    1 processors via shared memory.
 %mem=1GB
 --------------------------------------------------------------
 # HF/6-31G* Opt=(Z-matrix,MaxCycles=100) Geom=PrintInputOrient
 --------------------------------------------------------------
 1/6=100,10=7,18=40,38=1/1,3;
 2/9=2000,12=2,17=6,18=5,29=3,40=1/2;
 3/5=1,6=6,7=1,11=9,25=1,30=1,71=1/1,2,3;
 4//1;
 5/5=2,38=5/2;
 6/7=2,8=2,9=2,10=2,28=1/1;
 7/29=1/1,2,3,16;
 1/6=100,10=7,18=40/3(2);
 2/9=2000,29=3/2;
 99//99;
 2/9=2000,29=3/2;
 3/5=1,6=6,7=1,11=9,25=1,30=1,71=1/1,2,3;
 4/5=5,16=3,69=1/1;
 5/5=2,38=5/2;
 7//1,2,3,16;
 1/6=100,18=40/3(-5);
 2/9=2000,29=3/2;
 6/7=2,8=2,9=2,10=2,19=2,28=1/1;
 99/9=1/99;
 ---------------------------------------------------------------
 <qmtool> simtype="Geometry optimization" </qmtool> PRLD-DON-H22
 ---------------------------------------------------------------
 Symbolic Z-matrix:
 Charge =  0 Multiplicity = 1
 N1                    0.844     0.456     0.923 
 H2                    1.372     0.495     1.798 
 C3                    1.643     1.125    -0.113 
 H4                    2.        2.097     0.243 
 H5                    0.987     1.307    -0.971 
 C6                    2.779     0.153    -0.504 
 H7                    3.689     0.384     0.059 
 H8                    3.031     0.222    -1.566 
 C9                    2.231    -1.24     -0.112 
 H10                   2.866    -1.707     0.647 
 H11                   2.185    -1.928    -0.962 
 C12                   0.83     -0.941     0.469 
 H13                   0.542    -1.609     1.286 
 H14                   0.068    -1.027    -0.314 
 x                    H5    1.       C3    90.      C6   dih      0
 Ow                   H5   rAH      x     90.      C3    180.     0
 H1w                  Ow    0.9572   H5    127.74   x     0.       0
 H2w                  Ow    0.9572   H5    127.74   x     180.     0
       Variables:
  rAH                   2.                       
  dih                   0.                       
 

 GradGradGradGradGradGradGradGradGradGradGradGradGradGradGradGradGradGrad
 Berny optimization.
 Initialization pass.
                       ----------------------------
                       !    Initial Parameters    !
                       ! (Angstroms and Degrees)  !
 ----------------------                            ----------------------
 !      Name          Value   Derivative information (Atomic Units)     !
 ------------------------------------------------------------------------
 !       rAH         2.0      estimate D2E/DX2                          !
 !       dih         0.0      estimate D2E/DX2                          !
 ------------------------------------------------------------------------
 Trust Radius=3.00D-01 FncErr=1.00D-07 GrdErr=1.00D-07 EigMax=2.50D+02 EigMin=1.00D-04
 Number of steps in this run=    100 maximum allowed number of steps=    100.
 GradGradGradGradGradGradGradGradGradGradGradGradGradGradGradGradGradGrad

 ---------------------------------------------------------------------------------------------------
                            Z-MATRIX (ANGSTROMS AND DEGREES)
   CD    Cent   Atom    N1       Length/X        N2       Alpha/Y        N3        Beta/Z          J
 ---------------------------------------------------------------------------------------------------
      1      1  N        0   0.844000          0.456000          0.923000
      2      2  H        0   1.372000          0.495000          1.798000
      3      3  C        0   1.643000          1.125000         -0.113000
      4      4  H        0   2.000000          2.097000          0.243000
      5      5  H        0   0.987000          1.307000         -0.971000
      6      6  C        0   2.779000          0.153000         -0.504000
      7      7  H        0   3.689000          0.384000          0.059000
      8      8  H        0   3.031000          0.222000         -1.566000
      9      9  C        0   2.231000         -1.240000         -0.112000
     10     10  H        0   2.866000         -1.707000          0.647000
     11     11  H        0   2.185000         -1.928000         -0.962000
     12     12  C        0   0.830000         -0.941000          0.469000
     13     13  H        0   0.542000         -1.609000          1.286000
     14     14  H        0   0.068000         -1.027000         -0.314000
     15         X        5   1.000000(    14)      3   90.000(    30)      6    0.000(    45)      0
     16     15  O        5   2.000000(    15)     15   90.000(    31)      3  180.000(    46)      0
     17     16  H       16   0.957200(    16)      5  127.740(    32)     15    0.000(    47)      0
     18     17  H       16   0.957200(    17)      5  127.740(    33)     15  180.000(    48)      0
 ---------------------------------------------------------------------------------------------------
                         Z-Matrix orientation:                         
 ---------------------------------------------------------------------
 Center     Atomic      Atomic             Coordinates (Angstroms)
 Number     Number       Type             X           Y           Z
 ---------------------------------------------------------------------
      1          7           0        0.844000    0.456000    0.923000
      2          1           0        1.372000    0.495000    1.798000
      3          6           0        1.643000    1.125000   -0.113000
      4          1           0        2.000000    2.097000    0.243000
      5          1           0        0.987000    1.307000   -0.971000
      6          6           0        2.779000    0.153000   -0.504000
      7          1           0        3.689000    0.384000    0.059000
      8          1           0        3.031000    0.222000   -1.566000
      9          6           0        2.231000   -1.240000   -0.112000
     10          1           0        2.866000   -1.707000    0.647000
     11          1           0        2.185000   -1.928000   -0.962000
     12          6           0        0.830000   -0.941000    0.469000
     13          1           0        0.542000   -1.609000    1.286000
     14          1           0        0.068000   -1.027000   -0.314000
     15         -1           0        1.549371    0.697859   -1.530183
     16          8           0       -0.210874    1.639337   -2.537732
     17          1           0       -0.136094    1.275603   -3.419966
     18          1           0       -0.987468    2.197782   -2.573418
 ---------------------------------------------------------------------
                    Distance matrix (angstroms):
                    1          2          3          4          5
     1  N    0.000000
     2  H    1.022707   0.000000
     3  C    1.469441   2.030335   0.000000
     4  H    2.119343   2.319227   1.094974   0.000000
     5  H    2.081318   2.911173   1.095274   1.767502   0.000000
     6  C    2.423296   2.719525   1.545368   2.223508   2.181987
     7  H    2.974173   2.899126   2.182838   2.412664   3.035397
     8  H    3.321573   3.760759   2.202989   2.801975   2.389390
     9  C    2.423099   2.719597   2.437000   3.363771   2.961862
    10  H    2.973757   2.899248   3.177035   3.922192   3.902917
    11  H    3.321891   3.761582   3.214868   4.205577   3.449712
    12  C    1.468986   2.030296   2.295223   3.263345   2.674276
    13  H    2.118301   2.319021   3.262539   4.116801   3.714180
    14  H    2.081258   2.911605   2.674347   3.715138   2.593023
    15  X    2.564011   3.339074   1.483113   2.303224   1.000000
    16  O    3.806536   4.755373   3.095274   3.581884   2.000000
    17  H    4.526996   5.487336   3.758175   4.319133   2.694394
    18  H    4.314281   5.251272   3.758175   4.106986   2.694394
                    6          7          8          9         10
     6  C    0.000000
     7  H    1.094728   0.000000
     8  H    1.093668   1.760634   0.000000
     9  C    1.547390   2.189151   2.211687   0.000000
    10  H    2.189057   2.322790   2.940346   1.094255   0.000000
    11  H    2.212049   2.941054   2.388102   1.094514   1.761103
    12  C    2.437656   3.177673   3.215306   1.545886   2.182598
    13  H    3.363467   3.921886   4.204948   2.223350   2.412240
    14  H    2.962773   3.904061   3.450634   2.182829   3.035577
    15  X    1.691718   2.683658   1.556582   2.496229   3.500998
    16  O    3.909554   4.850557   3.669177   4.487484   5.550464
    17  H    4.273274   5.246857   3.818082   4.782680   5.869302
    18  H    4.759192   5.664696   4.589847   5.313705   6.361417
                   11         12         13         14         15
    11  H    0.000000
    12  C    2.204077   0.000000
    13  H    2.802626   1.093918   0.000000
    14  H    2.390271   1.095960   1.767314   0.000000
    15  X    2.760796   2.683298   3.777206   2.578508   0.000000
    16  O    4.577012   4.096584   5.073405   3.483118   2.236068
    17  H    4.657483   4.579380   5.561193   3.871777   2.597279
    18  H    5.448238   4.734073   5.632581   4.076543   3.126286
                   16         17         18
    16  O    0.000000
    17  H    0.957200   0.000000
    18  H    0.957200   1.513901   0.000000
 Stoichiometry    C4H11NO
 Framework group  C1[X(C4H11NO)]
 Deg. of freedom    45
 Full point group                 C1      NOp   1
 Largest Abelian subgroup         C1      NOp   1
 Largest concise Abelian subgroup C1      NOp   1
                         Standard orientation:                         
 ---------------------------------------------------------------------
 Center     Atomic      Atomic             Coordinates (Angstroms)
 Number     Number       Type             X           Y           Z
 ---------------------------------------------------------------------
      1          7           0        0.556124   -1.107228    0.722897
      2          1           0        1.370171   -1.151543    1.340387
      3          6           0       -0.122593    0.173020    0.966958
      4          1           0       -0.267191    0.334394    2.040280
      5          1           0       -1.113606    0.115886    0.504083
      6          6           0        0.725052    1.270021    0.284136
      7          1           0        1.408866    1.727976    1.006013
      8          1           0        0.105021    2.072209   -0.125943
      9          6           0        1.512040    0.508511   -0.809102
     10          1           0        2.589716    0.584784   -0.635346
     11          1           0        1.318907    0.897273   -1.813853
     12          6           0        1.044898   -0.956942   -0.654213
     13          1           0        1.826580   -1.691685   -0.868187
     14          1           0        0.204741   -1.160825   -1.327783
     15          8           0       -2.923223    0.011559   -0.341140
     16          1           0       -3.263771    0.539246   -1.063501
     17          1           0       -3.642898   -0.577253   -0.113981
 ---------------------------------------------------------------------
 Rotational constants (GHZ):           4.4012531           1.8161677           1.7123590
 Standard basis: 6-31G(d) (6D, 7F)
 There are   112 symmetry adapted cartesian basis functions of A   symmetry.
 There are   112 symmetry adapted basis functions of A   symmetry.
   112 basis functions,   212 primitive gaussians,   112 cartesian basis functions
    25 alpha electrons       25 beta electrons
       nuclear repulsion energy       253.0418340994 Hartrees.
 NAtoms=   17 NActive=   17 NUniq=   17 SFac= 1.00D+00 NAtFMM=   60 NAOKFM=F Big=F
 Integral buffers will be    131072 words long.
 Raffenetti 1 integral format.
 Two-electron integral symmetry is turned on.
 One-electron integrals computed using PRISM.
 NBasis=   112 RedAO= T EigKep=  3.08D-03  NBF=   112
 NBsUse=   112 1.00D-06 EigRej= -1.00D+00 NBFU=   112
 ExpMin= 1.61D-01 ExpMax= 5.48D+03 ExpMxC= 8.25D+02 IAcc=3 IRadAn=         5 AccDes= 0.00D+00
 Harris functional with IExCor=  205 and IRadAn=       5 diagonalized for initial guess.
 HarFok:  IExCor=  205 AccDes= 0.00D+00 IRadAn=         5 IDoV= 1 UseB2=F ITyADJ=14
 ICtDFT=  3500011 ScaDFX=  1.000000  1.000000  1.000000  1.000000
 FoFCou: FMM=F IPFlag=           0 FMFlag=      100000 FMFlg1=           0
         NFxFlg=           0 DoJE=T BraDBF=F KetDBF=T FulRan=T
         wScrn=  0.000000 ICntrl=       500 IOpCl=  0 I1Cent=   200000004 NGrid=           0
         NMat0=    1 NMatS0=      1 NMatT0=    0 NMatD0=    1 NMtDS0=    0 NMtDT0=    0
 Petite list used in FoFCou.
 Keep R1 ints in memory in canonical form, NReq=20924599.
 Requested convergence on RMS density matrix=1.00D-08 within 128 cycles.
 Requested convergence on MAX density matrix=1.00D-06.
 Requested convergence on             energy=1.00D-06.
 No special actions if energy rises.
 SCF Done:  E(RHF) =  -287.150045787     A.U. after   12 cycles
            NFock= 12  Conv=0.67D-08     -V/T= 2.0016

 **********************************************************************

            Population analysis using the SCF density.

 **********************************************************************

 Orbital symmetries:
       Occupied  (A) (A) (A) (A) (A) (A) (A) (A) (A) (A) (A) (A)
                 (A) (A) (A) (A) (A) (A) (A) (A) (A) (A) (A) (A)
                 (A)
       Virtual   (A) (A) (A) (A) (A) (A) (A) (A) (A) (A) (A) (A)
                 (A) (A) (A) (A) (A) (A) (A) (A) (A) (A) (A) (A)
                 (A) (A) (A) (A) (A) (A) (A) (A) (A) (A) (A) (A)
                 (A) (A) (A) (A) (A) (A) (A) (A) (A) (A) (A) (A)
                 (A) (A) (A) (A) (A) (A) (A) (A) (A) (A) (A) (A)
                 (A) (A) (A) (A) (A) (A) (A) (A) (A) (A) (A) (A)
                 (A) (A) (A) (A) (A) (A) (A) (A) (A) (A) (A) (A)
                 (A) (A) (A)
 The electronic state is 1-A.
 Alpha  occ. eigenvalues --  -20.56998 -15.52339 -11.22822 -11.21174 -11.20588
 Alpha  occ. eigenvalues --  -11.20217  -1.35244  -1.19853  -1.00402  -0.95105
 Alpha  occ. eigenvalues --   -0.79654  -0.76778  -0.71663  -0.65779  -0.62444
 Alpha  occ. eigenvalues --   -0.59775  -0.57369  -0.55435  -0.50825  -0.48843
 Alpha  occ. eigenvalues --   -0.47189  -0.46354  -0.45853  -0.43723  -0.35467
 Alpha virt. eigenvalues --    0.19973   0.22860   0.26953   0.29735   0.30072
 Alpha virt. eigenvalues --    0.30596   0.32883   0.34008   0.35260   0.37568
 Alpha virt. eigenvalues --    0.38502   0.40704   0.43044   0.46704   0.50310
 Alpha virt. eigenvalues --    0.54155   0.74267   0.77661   0.78525   0.81147
 Alpha virt. eigenvalues --    0.81738   0.85463   0.91871   0.93501   0.94128
 Alpha virt. eigenvalues --    0.96098   1.01823   1.04037   1.04365   1.10812
 Alpha virt. eigenvalues --    1.11821   1.14391   1.14942   1.15322   1.16155
 Alpha virt. eigenvalues --    1.17433   1.19459   1.20639   1.23101   1.23683
 Alpha virt. eigenvalues --    1.24887   1.25330   1.27868   1.37714   1.42721
 Alpha virt. eigenvalues --    1.47978   1.53909   1.57878   1.61057   1.68576
 Alpha virt. eigenvalues --    1.71889   1.92774   2.02302   2.02419   2.05518
 Alpha virt. eigenvalues --    2.10206   2.13856   2.15226   2.16999   2.21851
 Alpha virt. eigenvalues --    2.28306   2.31528   2.33393   2.37036   2.44587
 Alpha virt. eigenvalues --    2.45174   2.46466   2.52797   2.59140   2.60658
 Alpha virt. eigenvalues --    2.62497   2.73210   2.75642   2.83898   2.91648
 Alpha virt. eigenvalues --    2.93925   2.97472   2.99712   3.00535   3.04562
 Alpha virt. eigenvalues --    3.26032   4.08999   4.37488   4.62693   4.73430
 Alpha virt. eigenvalues --    4.92159   5.08186
          Condensed to atoms (all electrons):
               1          2          3          4          5          6
     1  N    7.065029   0.326105   0.283580  -0.035083  -0.041882  -0.085119
     2  H    0.326105   0.446507  -0.043422  -0.005789   0.005252  -0.000963
     3  C    0.283580  -0.043422   5.059208   0.400387   0.405163   0.328635
     4  H   -0.035083  -0.005789   0.400387   0.543187  -0.022697  -0.037544
     5  H   -0.041882   0.005252   0.405163  -0.022697   0.435139  -0.046694
     6  C   -0.085119  -0.000963   0.328635  -0.037544  -0.046694   5.200711
     7  H    0.002752   0.001114  -0.038545  -0.004514   0.003397   0.394825
     8  H    0.004474  -0.000047  -0.032878   0.001472  -0.002015   0.391596
     9  C   -0.086279  -0.000799  -0.060553   0.004073  -0.000788   0.323246
    10  H    0.002770   0.000989   0.003190  -0.000170  -0.000004  -0.038440
    11  H    0.004475  -0.000023   0.002961  -0.000069   0.000168  -0.033590
    12  C    0.298059  -0.043616  -0.091556   0.006327  -0.002459  -0.062515
    13  H   -0.034098  -0.005674   0.006163  -0.000125  -0.000121   0.003919
    14  H   -0.046501   0.005780  -0.001406  -0.000161   0.002683  -0.000332
    15  O    0.000444  -0.000014  -0.013292   0.000288  -0.004008   0.000628
    16  H   -0.000022   0.000001   0.000698  -0.000015   0.000814  -0.000058
    17  H   -0.000039   0.000001   0.000695  -0.000025   0.000788  -0.000023
               7          8          9         10         11         12
     1  N    0.002752   0.004474  -0.086279   0.002770   0.004475   0.298059
     2  H    0.001114  -0.000047  -0.000799   0.000989  -0.000023  -0.043616
     3  C   -0.038545  -0.032878  -0.060553   0.003190   0.002961  -0.091556
     4  H   -0.004514   0.001472   0.004073  -0.000170  -0.000069   0.006327
     5  H    0.003397  -0.002015  -0.000788  -0.000004   0.000168  -0.002459
     6  C    0.394825   0.391596   0.323246  -0.038440  -0.033590  -0.062515
     7  H    0.556834  -0.027864  -0.039173  -0.006553   0.002734   0.003322
     8  H   -0.027864   0.539288  -0.033970   0.002711  -0.003872   0.003057
     9  C   -0.039173  -0.033970   5.203953   0.394896   0.389917   0.335709
    10  H   -0.006553   0.002711   0.394896   0.551249  -0.026932  -0.038661
    11  H    0.002734  -0.003872   0.389917  -0.026932   0.539067  -0.032592
    12  C    0.003322   0.003057   0.335709  -0.038661  -0.032592   4.969570
    13  H   -0.000166  -0.000067  -0.036239  -0.004372   0.001437   0.402420
    14  H   -0.000021   0.000173  -0.053316   0.003884  -0.002517   0.404850
    15  O   -0.000007   0.000250  -0.000030  -0.000000  -0.000004  -0.000186
    16  H    0.000001  -0.000022   0.000001   0.000000   0.000001   0.000011
    17  H    0.000000  -0.000006   0.000001   0.000000   0.000000   0.000002
              13         14         15         16         17
     1  N   -0.034098  -0.046501   0.000444  -0.000022  -0.000039
     2  H   -0.005674   0.005780  -0.000014   0.000001   0.000001
     3  C    0.006163  -0.001406  -0.013292   0.000698   0.000695
     4  H   -0.000125  -0.000161   0.000288  -0.000015  -0.000025
     5  H   -0.000121   0.002683  -0.004008   0.000814   0.000788
     6  C    0.003919  -0.000332   0.000628  -0.000058  -0.000023
     7  H   -0.000166  -0.000021  -0.000007   0.000001   0.000000
     8  H   -0.000067   0.000173   0.000250  -0.000022  -0.000006
     9  C   -0.036239  -0.053316  -0.000030   0.000001   0.000001
    10  H   -0.004372   0.003884  -0.000000   0.000000   0.000000
    11  H    0.001437  -0.002517  -0.000004   0.000001   0.000000
    12  C    0.402420   0.404850  -0.000186   0.000011   0.000002
    13  H    0.534330  -0.027541   0.000001  -0.000000  -0.000000
    14  H   -0.027541   0.545556   0.000776  -0.000007  -0.000007
    15  O    0.000001   0.000776   8.353745   0.262258   0.263502
    16  H   -0.000000  -0.000007   0.262258   0.316514  -0.017112
    17  H   -0.000000  -0.000007   0.263502  -0.017112   0.310858
 Mulliken charges:
               1
     1  N   -0.658665
     2  H    0.314598
     3  C   -0.209028
     4  H    0.150457
     5  H    0.267264
     6  C   -0.338282
     7  H    0.151863
     8  H    0.157719
     9  C   -0.340650
    10  H    0.155443
    11  H    0.158838
    12  C   -0.151742
    13  H    0.160131
    14  H    0.168106
    15  O   -0.864351
    16  H    0.436936
    17  H    0.441364
 Sum of Mulliken charges =  -0.00000
 Mulliken charges with hydrogens summed into heavy atoms:
               1
     1  N   -0.344067
     3  C    0.208692
     6  C   -0.028700
     9  C   -0.026369
    12  C    0.176495
    15  O    0.013949
 Electronic spatial extent (au):  <R**2>=            815.3939
 Charge=              0.0000 electrons
 Dipole moment (field-independent basis, Debye):
    X=             -1.7904    Y=              1.0345    Z=             -1.2055  Tot=              2.3935
 Quadrupole moment (field-independent basis, Debye-Ang):
   XX=            -23.7752   YY=            -41.9827   ZZ=            -36.9770
   XY=             -0.6264   XZ=              4.9984   YZ=              0.0422
 Traceless Quadrupole moment (field-independent basis, Debye-Ang):
   XX=             10.4697   YY=             -7.7377   ZZ=             -2.7320
   XY=             -0.6264   XZ=              4.9984   YZ=              0.0422
 Octapole moment (field-independent basis, Debye-Ang**2):
  XXX=            -76.7194  YYY=              3.0366  ZZZ=             -0.8210  XYY=             -8.5800
  XXY=             -9.3225  XXZ=            -10.9664  XZZ=             -9.1000  YZZ=              1.3049
  YYZ=             -4.3341  XYZ=              3.5266
 Hexadecapole moment (field-independent basis, Debye-Ang**3):
 XXXX=           -320.1928 YYYY=           -247.2170 ZZZZ=           -177.8948 XXXY=             17.1605
 XXXZ=             63.4608 YYYX=             -5.8676 YYYZ=              2.8710 ZZZX=             20.0990
 ZZZY=             -4.4182 XXYY=           -121.8654 XXZZ=           -110.6071 YYZZ=            -71.0094
 XXYZ=            -14.6795 YYXZ=              6.8131 ZZXY=             -7.3319
 N-N= 2.530418340994D+02 E-N=-1.179233995301D+03  KE= 2.866880977861D+02
 Calling FoFJK, ICntrl=      2127 FMM=F ISym2X=0 I1Cent= 0 IOpClX= 0 NMat=1 NMatS=1 NMatT=0.
 ***** Axes restored to original set *****
 -------------------------------------------------------------------
 Center     Atomic                   Forces (Hartrees/Bohr)
 Number     Number              X              Y              Z
 -------------------------------------------------------------------
      1        7           0.015550763   -0.005496542    0.007457590
      2        1          -0.009474781   -0.000963380   -0.012393638
      3        6          -0.007575366    0.008147598   -0.004764326
      4        1          -0.001272303   -0.007054116   -0.001488030
      5        1           0.010630669   -0.002186831    0.013561746
      6        6           0.005674449    0.003392053    0.000385736
      7        1          -0.004215465   -0.002280822   -0.003820756
      8        1          -0.001565119   -0.000098719    0.006099119
      9        6           0.001596791   -0.005814453    0.000025531
     10        1          -0.003247789    0.002105810   -0.004563651
     11        1           0.000243480    0.003893260    0.005553224
     12        6          -0.007657799    0.000807656    0.002552122
     13        1           0.002108550    0.003845601   -0.005563547
     14        1           0.005094900    0.000414442    0.005433022
     15        8          -0.013990982    0.003631238   -0.020244746
     16        1           0.000205232    0.003037961    0.009176218
     17        1           0.007894771   -0.005380755    0.002594385
 -------------------------------------------------------------------
 Cartesian Forces:  Max     0.020244746 RMS     0.006708129
 -----------------------------------------------------------------------------------------------
                       Internal Coordinate Forces (Hartree/Bohr or radian)
  Cent   Atom   N1       Length/X         N2         Alpha/Y        N3         Beta/Z          J
 -----------------------------------------------------------------------------------------------
      1  N            0.015551(     1)     -0.005497(    19)      0.007458(    37)
      2  H           -0.009475(     2)     -0.000963(    20)     -0.012394(    38)
      3  C           -0.007700(     3)      0.008339(    21)     -0.004628(    39)
      4  H           -0.001272(     4)     -0.007054(    22)     -0.001488(    40)
      5  H            0.004758(     5)     -0.001235(    23)      0.005002(    41)
      6  C            0.005781(     6)      0.003537(    24)      0.000335(    42)
      7  H           -0.004215(     7)     -0.002281(    25)     -0.003821(    43)
      8  H           -0.001565(     8)     -0.000099(    26)      0.006099(    44)
      9  C            0.001597(     9)     -0.005814(    27)      0.000026(    45)
     10  H           -0.003248(    10)      0.002106(    28)     -0.004564(    46)
     11  H            0.000243(    11)      0.003893(    29)      0.005553(    47)
     12  C           -0.007658(    12)      0.000808(    30)      0.002552(    48)
     13  H            0.002109(    13)      0.003846(    31)     -0.005564(    49)
     14  H            0.005095(    14)      0.000414(    32)      0.005433(    50)
         X        5   0.000000(    15)      3  -0.000544(    33)      6  -0.000513(    51)     0
     15  O        5   0.010381(    16)     15  -0.000544(    34)      3   0.000660(    52)     0
     16  H       16  -0.009596(    17)      5  -0.002134(    35)     15   0.000025(    53)     0
     17  H       16  -0.009641(    18)      5  -0.004012(    36)     15  -0.000538(    54)     0
 -----------------------------------------------------------------------------------------------
 Internal  Forces:  Max     0.015550763 RMS     0.005363030

 GradGradGradGradGradGradGradGradGradGradGradGradGradGradGradGradGradGrad
 Berny optimization.
 Search for a local minimum.
 Step number   1 out of a maximum of  100
 All quantities printed in internal units (Hartrees-Bohrs-Radians)
 Second derivative matrix not updated -- first step.
 The second derivative matrix:
                          rAH       dih
           rAH          0.04307
           dih         -0.00000  -0.00000
 ITU=  0
     Eigenvalues ---    0.00000   0.04307
 RFO step:  Lambda=-2.47261524D-03 EMin= 0.00000000D+00
 Linear search not attempted -- first point.
 Maximum step size (   0.300) exceeded in Quadratic search.
    -- Step size scaled by   0.974
 Variable       Old X    -DE/DX   Delta X   Delta X   Delta X     New X
                                 (Linear)    (Quad)   (Total)
   rAH        3.77945   0.01038   0.00000   0.22195   0.22195   4.00140
   dih        0.00000  -0.00051   0.00000  -0.20184  -0.20184  -0.20184
         Item               Value     Threshold  Converged?
 Maximum Force            0.010381     0.000450     NO 
 RMS     Force            0.007349     0.000300     NO 
 Maximum Displacement     0.221951     0.001800     NO 
 RMS     Displacement     0.212132     0.001200     NO 
 Predicted change in Energy=-1.346714D-03
 GradGradGradGradGradGradGradGradGradGradGradGradGradGradGradGradGradGrad

 ---------------------------------------------------------------------------------------------------
                            Z-MATRIX (ANGSTROMS AND DEGREES)
   CD    Cent   Atom    N1       Length/X        N2       Alpha/Y        N3        Beta/Z          J
 ---------------------------------------------------------------------------------------------------
      1      1  N        0   0.844000          0.456000          0.923000
      2      2  H        0   1.372000          0.495000          1.798000
      3      3  C        0   1.643000          1.125000         -0.113000
      4      4  H        0   2.000000          2.097000          0.243000
      5      5  H        0   0.987000          1.307000         -0.971000
      6      6  C        0   2.779000          0.153000         -0.504000
      7      7  H        0   3.689000          0.384000          0.059000
      8      8  H        0   3.031000          0.222000         -1.566000
      9      9  C        0   2.231000         -1.240000         -0.112000
     10     10  H        0   2.866000         -1.707000          0.647000
     11     11  H        0   2.185000         -1.928000         -0.962000
     12     12  C        0   0.830000         -0.941000          0.469000
     13     13  H        0   0.542000         -1.609000          1.286000
     14     14  H        0   0.068000         -1.027000         -0.314000
     15         X        5   1.000000(    14)      3   90.000(    30)      6  -11.564(    45)      0
     16     15  O        5   2.117451(    15)     15   90.000(    31)      3  180.000(    46)      0
     17     16  H       16   0.957200(    16)      5  127.740(    32)     15    0.000(    47)      0
     18     17  H       16   0.957200(    17)      5  127.740(    33)     15  180.000(    48)      0
 ---------------------------------------------------------------------------------------------------
                         Z-Matrix orientation:                         
 ---------------------------------------------------------------------
 Center     Atomic      Atomic             Coordinates (Angstroms)
 Number     Number       Type             X           Y           Z
 ---------------------------------------------------------------------
      1          7           0        0.844000    0.456000    0.923000
      2          1           0        1.372000    0.495000    1.798000
      3          6           0        1.643000    1.125000   -0.113000
      4          1           0        2.000000    2.097000    0.243000
      5          1           0        0.987000    1.307000   -0.971000
      6          6           0        2.779000    0.153000   -0.504000
      7          1           0        3.689000    0.384000    0.059000
      8          1           0        3.031000    0.222000   -1.566000
      9          6           0        2.231000   -1.240000   -0.112000
     10          1           0        2.866000   -1.707000    0.647000
     11          1           0        2.185000   -1.928000   -0.962000
     12          6           0        0.830000   -0.941000    0.469000
     13          1           0        0.542000   -1.609000    1.286000
     14          1           0        0.068000   -1.027000   -0.314000
     15         -1           0        1.652242    0.865680   -1.573237
     16          8           0       -0.281220    1.658854   -2.629739
     17          1           0       -0.128572    1.422152   -3.544563
     18          1           0       -1.135682    2.090267   -2.632836
 ---------------------------------------------------------------------
                    Distance matrix (angstroms):
                    1          2          3          4          5
     1  N    0.000000
     2  H    1.022707   0.000000
     3  C    1.469441   2.030335   0.000000
     4  H    2.119343   2.319227   1.094974   0.000000
     5  H    2.081318   2.911173   1.095274   1.767502   0.000000
     6  C    2.423296   2.719525   1.545368   2.223508   2.181987
     7  H    2.974173   2.899126   2.182838   2.412664   3.035397
     8  H    3.321573   3.760759   2.202989   2.801975   2.389390
     9  C    2.423099   2.719597   2.437000   3.363771   2.961862
    10  H    2.973757   2.899248   3.177035   3.922192   3.902917
    11  H    3.321891   3.761582   3.214868   4.205577   3.449712
    12  C    1.468986   2.030296   2.295223   3.263345   2.674276
    13  H    2.118301   2.319021   3.262539   4.116801   3.714180
    14  H    2.081258   2.911605   2.674347   3.715138   2.593023
    15  X    2.655615   3.403113   1.483113   2.221666   1.000000
    16  O    3.915985   4.867501   3.212725   3.694397   2.117451
    17  H    4.673164   5.626216   3.873292   4.396802   2.807309
    18  H    4.385652   5.335322   3.873292   4.254760   2.807309
                    6          7          8          9         10
     6  C    0.000000
     7  H    1.094728   0.000000
     8  H    1.093668   1.760634   0.000000
     9  C    1.547390   2.189151   2.211687   0.000000
    10  H    2.189057   2.322790   2.940346   1.094255   0.000000
    11  H    2.212049   2.941054   2.388102   1.094514   1.761103
    12  C    2.437656   3.177673   3.215306   1.545886   2.182598
    13  H    3.363467   3.921886   4.204948   2.223350   2.412240
    14  H    2.962773   3.904061   3.450634   2.182829   3.035577
    15  X    1.709024   2.654165   1.521627   2.627558   3.608509
    16  O    4.018870   4.961574   3.763893   4.588422   5.654289
    17  H    4.394285   5.351381   3.916372   4.943391   6.027292
    18  H    4.858980   5.782291   4.689328   5.364685   6.417945
                   11         12         13         14         15
    11  H    0.000000
    12  C    2.204077   0.000000
    13  H    2.802626   1.093918   0.000000
    14  H    2.390271   1.095960   1.767314   0.000000
    15  X    2.908967   2.847965   3.941055   2.770873   0.000000
    16  O    4.661450   4.194787   5.166195   3.563483   2.341709
    17  H    4.821386   4.755211   5.742115   4.058758   2.714238
    18  H    5.474038   4.761709   5.644154   4.067334   3.224110
                   16         17         18
    16  O    0.000000
    17  H    0.957200   0.000000
    18  H    0.957200   1.513901   0.000000
 Stoichiometry    C4H11NO
 Framework group  C1[X(C4H11NO)]
 Deg. of freedom    45
 Full point group                 C1      NOp   1
 Largest Abelian subgroup         C1      NOp   1
 Largest concise Abelian subgroup C1      NOp   1
                         Standard orientation:                         
 ---------------------------------------------------------------------
 Center     Atomic      Atomic             Coordinates (Angstroms)
 Number     Number       Type             X           Y           Z
 ---------------------------------------------------------------------
      1          7           0        0.589329   -1.100330    0.731850
      2          1           0        1.414690   -1.140436    1.334429
      3          6           0       -0.082840    0.183161    0.976998
      4          1           0       -0.207150    0.354386    2.051334
      5          1           0       -1.082399    0.123498    0.533212
      6          6           0        0.753524    1.272612    0.268653
      7          1           0        1.451358    1.735903    0.973508
      8          1           0        0.127126    2.072102   -0.136993
      9          6           0        1.518862    0.500048   -0.832174
     10          1           0        2.599703    0.576116   -0.679233
     11          1           0        1.307586    0.880102   -1.836605
     12          6           0        1.052545   -0.963193   -0.655430
     13          1           0        1.829021   -1.701099   -0.877323
     14          1           0        0.199669   -1.171734   -1.311358
     15          8           0       -3.014809    0.008153   -0.324743
     16          1           0       -3.421935    0.621804   -0.936226
     17          1           0       -3.677049   -0.669329   -0.188038
 ---------------------------------------------------------------------
 Rotational constants (GHZ):           4.3750707           1.7407192           1.6465942
 Standard basis: 6-31G(d) (6D, 7F)
 There are   112 symmetry adapted cartesian basis functions of A   symmetry.
 There are   112 symmetry adapted basis functions of A   symmetry.
   112 basis functions,   212 primitive gaussians,   112 cartesian basis functions
    25 alpha electrons       25 beta electrons
       nuclear repulsion energy       251.5486662932 Hartrees.
 NAtoms=   17 NActive=   17 NUniq=   17 SFac= 1.00D+00 NAtFMM=   60 NAOKFM=F Big=F
 Integral buffers will be    131072 words long.
 Raffenetti 1 integral format.
 Two-electron integral symmetry is turned on.
 One-electron integrals computed using PRISM.
 NBasis=   112 RedAO= T EigKep=  3.09D-03  NBF=   112
 NBsUse=   112 1.00D-06 EigRej= -1.00D+00 NBFU=   112
 Initial guess from the checkpoint file:  "PRLD-DON-H22.chk"
 B after Tr=    -0.000000   -0.000000   -0.000000
         Rot=    0.999976    0.003221   -0.006164   -0.000043 Ang=   0.80 deg.
 ExpMin= 1.61D-01 ExpMax= 5.48D+03 ExpMxC= 8.25D+02 IAcc=2 IRadAn=         4 AccDes= 0.00D+00
 Harris functional with IExCor=  205 and IRadAn=       4 diagonalized for initial guess.
 HarFok:  IExCor=  205 AccDes= 0.00D+00 IRadAn=         4 IDoV= 1 UseB2=F ITyADJ=14
 ICtDFT=  3500011 ScaDFX=  1.000000  1.000000  1.000000  1.000000
 FoFCou: FMM=F IPFlag=           0 FMFlag=      100000 FMFlg1=           0
         NFxFlg=           0 DoJE=T BraDBF=F KetDBF=T FulRan=T
         wScrn=  0.000000 ICntrl=       500 IOpCl=  0 I1Cent=   200000004 NGrid=           0
         NMat0=    1 NMatS0=      1 NMatT0=    0 NMatD0=    1 NMtDS0=    0 NMtDT0=    0
 Petite list used in FoFCou.
 Keep R1 ints in memory in canonical form, NReq=20924237.
 Requested convergence on RMS density matrix=1.00D-08 within 128 cycles.
 Requested convergence on MAX density matrix=1.00D-06.
 Requested convergence on             energy=1.00D-06.
 No special actions if energy rises.
 SCF Done:  E(RHF) =  -287.151968277     A.U. after   11 cycles
            NFock= 11  Conv=0.64D-08     -V/T= 2.0017
 Calling FoFJK, ICntrl=      2127 FMM=F ISym2X=0 I1Cent= 0 IOpClX= 0 NMat=1 NMatS=1 NMatT=0.
 ***** Axes restored to original set *****
 -------------------------------------------------------------------
 Center     Atomic                   Forces (Hartrees/Bohr)
 Number     Number              X              Y              Z
 -------------------------------------------------------------------
      1        7           0.015591663   -0.005401278    0.007112240
      2        1          -0.009463387   -0.000800373   -0.012479498
      3        6          -0.007547066    0.008106095   -0.004447367
      4        1          -0.001507107   -0.007123332   -0.001749652
      5        1           0.008727601   -0.001625138    0.011102165
      6        6           0.005576538    0.003298853    0.000067654
      7        1          -0.004337374   -0.002162170   -0.003770906
      8        1          -0.001597120   -0.000122805    0.006176951
      9        6           0.001562163   -0.005886429    0.000005565
     10        1          -0.003240442    0.002137909   -0.004555392
     11        1           0.000221235    0.003977229    0.005580434
     12        6          -0.007696779    0.000610289    0.002454061
     13        1           0.002123613    0.003895909   -0.005554991
     14        1           0.005141084    0.000403210    0.005422975
     15        8          -0.011943131    0.003077764   -0.017368610
     16        1          -0.000477378    0.001951518    0.009705289
     17        1           0.008865886   -0.004337251    0.002299084
 -------------------------------------------------------------------
 Cartesian Forces:  Max     0.017368610 RMS     0.006319299
 -----------------------------------------------------------------------------------------------
                       Internal Coordinate Forces (Hartree/Bohr or radian)
  Cent   Atom   N1       Length/X         N2         Alpha/Y        N3         Beta/Z          J
 -----------------------------------------------------------------------------------------------
      1  N            0.015592(     1)     -0.005401(    19)      0.007112(    37)
      2  H           -0.009463(     2)     -0.000800(    20)     -0.012479(    38)
      3  C           -0.007598(     3)      0.008396(    21)     -0.004347(    39)
      4  H           -0.001507(     4)     -0.007123(    22)     -0.001750(    40)
      5  H            0.005152(     5)     -0.001321(    23)      0.005672(    41)
      6  C            0.005648(     6)      0.003397(    24)      0.000033(    42)
      7  H           -0.004337(     7)     -0.002162(    25)     -0.003771(    43)
      8  H           -0.001597(     8)     -0.000123(    26)      0.006177(    44)
      9  C            0.001562(     9)     -0.005886(    27)      0.000006(    45)
     10  H           -0.003240(    10)      0.002138(    28)     -0.004555(    46)
     11  H            0.000221(    11)      0.003977(    29)      0.005580(    47)
     12  C           -0.007697(    12)      0.000610(    30)      0.002454(    48)
     13  H            0.002124(    13)      0.003896(    31)     -0.005555(    49)
     14  H            0.005141(    14)      0.000403(    32)      0.005423(    50)
         X        5  -0.000000(    15)      3  -0.000382(    33)      6  -0.000346(    51)     0
     15  O        5   0.006446(    16)     15  -0.000382(    34)      3   0.000831(    52)     0
     16  H       16  -0.009834(    17)      5  -0.002226(    35)     15  -0.000022(    53)     0
     17  H       16  -0.009877(    18)      5  -0.004087(    36)     15  -0.000323(    54)     0
 -----------------------------------------------------------------------------------------------
 Internal  Forces:  Max     0.015591663 RMS     0.005279399

 GradGradGradGradGradGradGradGradGradGradGradGradGradGradGradGradGradGrad
 Berny optimization.
 Search for a local minimum.
 Step number   2 out of a maximum of  100
 All quantities printed in internal units (Hartrees-Bohrs-Radians)
 Update second derivatives using D2CorN and points    1    2
 DE= -1.92D-03 DEPred=-1.35D-03 R= 1.43D+00
 TightC=F SS=  1.41D+00  RLast= 3.00D-01 DXNew= 5.0454D-01 9.0000D-01
 Trust test= 1.43D+00 RLast= 3.00D-01 DXMaxT set to 5.05D-01
 The second derivative matrix:
                          rAH       dih
           rAH          0.02920
           dih          0.00610   0.00037
 ITU=  1  0
 Linear search step of   0.600 exceeds DXMaxT=   0.505 but not scaled.
 Quartic linear search produced a step of  2.00000.
 Variable       Old X    -DE/DX   Delta X   Delta X   Delta X     New X
                                 (Linear)    (Quad)   (Total)
   rAH        4.00140   0.00645   0.44390   0.00000   0.44390   4.44530
   dih       -0.20184  -0.00035  -0.40367   0.00000  -0.40367  -0.60551
         Item               Value     Threshold  Converged?
 Maximum Force            0.006446     0.000450     NO 
 RMS     Force            0.004565     0.000300     NO 
 Maximum Displacement     0.443902     0.001800     NO 
 RMS     Displacement     0.424264     0.001200     NO 
 Predicted change in Energy=-1.186945D-03
 GradGradGradGradGradGradGradGradGradGradGradGradGradGradGradGradGradGrad

 ---------------------------------------------------------------------------------------------------
                            Z-MATRIX (ANGSTROMS AND DEGREES)
   CD    Cent   Atom    N1       Length/X        N2       Alpha/Y        N3        Beta/Z          J
 ---------------------------------------------------------------------------------------------------
      1      1  N        0   0.844000          0.456000          0.923000
      2      2  H        0   1.372000          0.495000          1.798000
      3      3  C        0   1.643000          1.125000         -0.113000
      4      4  H        0   2.000000          2.097000          0.243000
      5      5  H        0   0.987000          1.307000         -0.971000
      6      6  C        0   2.779000          0.153000         -0.504000
      7      7  H        0   3.689000          0.384000          0.059000
      8      8  H        0   3.031000          0.222000         -1.566000
      9      9  C        0   2.231000         -1.240000         -0.112000
     10     10  H        0   2.866000         -1.707000          0.647000
     11     11  H        0   2.185000         -1.928000         -0.962000
     12     12  C        0   0.830000         -0.941000          0.469000
     13     13  H        0   0.542000         -1.609000          1.286000
     14     14  H        0   0.068000         -1.027000         -0.314000
     15         X        5   1.000000(    14)      3   90.000(    30)      6  -34.693(    45)      0
     16     15  O        5   2.352354(    15)     15   90.000(    31)      3  180.000(    46)      0
     17     16  H       16   0.957200(    16)      5  127.740(    32)     15    0.000(    47)      0
     18     17  H       16   0.957200(    17)      5  127.740(    33)     15  180.000(    48)      0
 ---------------------------------------------------------------------------------------------------
                         Z-Matrix orientation:                         
 ---------------------------------------------------------------------
 Center     Atomic      Atomic             Coordinates (Angstroms)
 Number     Number       Type             X           Y           Z
 ---------------------------------------------------------------------
      1          7           0        0.844000    0.456000    0.923000
      2          1           0        1.372000    0.495000    1.798000
      3          6           0        1.643000    1.125000   -0.113000
      4          1           0        2.000000    2.097000    0.243000
      5          1           0        0.987000    1.307000   -0.971000
      6          6           0        2.779000    0.153000   -0.504000
      7          1           0        3.689000    0.384000    0.059000
      8          1           0        3.031000    0.222000   -1.566000
      9          6           0        2.231000   -1.240000   -0.112000
     10          1           0        2.866000   -1.707000    0.647000
     11          1           0        2.185000   -1.928000   -0.962000
     12          6           0        0.830000   -0.941000    0.469000
     13          1           0        0.542000   -1.609000    1.286000
     14          1           0        0.068000   -1.027000   -0.314000
     15         -1           0        1.773878    1.247532   -1.585237
     16          8           0       -0.421912    1.697887   -2.813754
     17          1           0       -0.177191    1.750228   -3.737661
     18          1           0       -1.368446    1.840257   -2.807768
 ---------------------------------------------------------------------
                    Distance matrix (angstroms):
                    1          2          3          4          5
     1  N    0.000000
     2  H    1.022707   0.000000
     3  C    1.469441   2.030335   0.000000
     4  H    2.119343   2.319227   1.094974   0.000000
     5  H    2.081318   2.911173   1.095274   1.767502   0.000000
     6  C    2.423296   2.719525   1.545368   2.223508   2.181987
     7  H    2.974173   2.899126   2.182838   2.412664   3.035397
     8  H    3.321573   3.760759   2.202989   2.801975   2.389390
     9  C    2.423099   2.719597   2.437000   3.363771   2.961862
    10  H    2.973757   2.899248   3.177035   3.922192   3.902917
    11  H    3.321891   3.761582   3.214868   4.205577   3.449712
    12  C    1.468986   2.030296   2.295223   3.263345   2.674276
    13  H    2.118301   2.319021   3.262539   4.116801   3.714180
    14  H    2.081258   2.911605   2.674347   3.715138   2.593023
    15  X    2.789704   3.489140   1.483113   2.028590   1.000000
    16  O    4.136200   5.092478   3.447627   3.920293   2.352354
    17  H    4.943644   5.883803   4.103922   4.550393   3.034173
    18  H    4.552989   5.525655   4.103922   4.551871   3.034173
                    6          7          8          9         10
     6  C    0.000000
     7  H    1.094728   0.000000
     8  H    1.093668   1.760634   0.000000
     9  C    1.547390   2.189151   2.211687   0.000000
    10  H    2.189057   2.322790   2.940346   1.094255   0.000000
    11  H    2.212049   2.941054   2.388102   1.094514   1.761103
    12  C    2.437656   3.177673   3.215306   1.545886   2.182598
    13  H    3.363467   3.921886   4.204948   2.223350   2.412240
    14  H    2.962773   3.904061   3.450634   2.182829   3.035577
    15  X    1.837755   2.667751   1.622480   2.926978   3.860683
    16  O    4.238806   5.184459   3.956986   4.792557   5.863484
    17  H    4.663343   5.588260   4.164623   5.280745   6.359143
    18  H    5.035424   5.993063   4.849316   5.450794   6.515289
                   11         12         13         14         15
    11  H    0.000000
    12  C    2.204077   0.000000
    13  H    2.802626   1.093918   0.000000
    14  H    2.390271   1.095960   1.767314   0.000000
    15  X    3.262123   3.146501   4.233356   3.114411   0.000000
    16  O    4.834464   4.394028   5.354682   3.730120   2.556085
    17  H    5.178185   5.094423   6.085953   4.415266   2.948272
    18  H    5.498509   4.827604   5.683847   4.062440   3.423464
                   16         17         18
    16  O    0.000000
    17  H    0.957200   0.000000
    18  H    0.957200   1.513901   0.000000
 Stoichiometry    C4H11NO
 Framework group  C1[X(C4H11NO)]
 Deg. of freedom    45
 Full point group                 C1      NOp   1
 Largest Abelian subgroup         C1      NOp   1
 Largest concise Abelian subgroup C1      NOp   1
                         Standard orientation:                         
 ---------------------------------------------------------------------
 Center     Atomic      Atomic             Coordinates (Angstroms)
 Number     Number       Type             X           Y           Z
 ---------------------------------------------------------------------
      1          7           0        0.653833   -1.067179    0.776043
      2          1           0        1.498392   -1.084711    1.352534
      3          6           0       -0.006869    0.228127    0.987970
      4          1           0       -0.095507    0.445427    2.057499
      5          1           0       -1.020570    0.153404    0.579985
      6          6           0        0.808448    1.283240    0.206845
      7          1           0        1.530105    1.773485    0.868133
      8          1           0        0.171013    2.067095   -0.211911
      9          6           0        1.535459    0.461594   -0.884378
     10          1           0        2.620910    0.540010   -0.770171
     11          1           0        1.292303    0.799318   -1.896691
     12          6           0        1.071681   -0.991013   -0.630201
     13          1           0        1.838701   -1.740639   -0.845604
     14          1           0        0.197278   -1.224070   -1.248451
     15          8           0       -3.197727   -0.007081   -0.296256
     16          1           0       -3.735410    0.695409   -0.661819
     17          1           0       -3.744539   -0.789513   -0.367170
 ---------------------------------------------------------------------
 Rotational constants (GHZ):           4.3308428           1.6002295           1.5235766
 Standard basis: 6-31G(d) (6D, 7F)
 There are   112 symmetry adapted cartesian basis functions of A   symmetry.
 There are   112 symmetry adapted basis functions of A   symmetry.
   112 basis functions,   212 primitive gaussians,   112 cartesian basis functions
    25 alpha electrons       25 beta electrons
       nuclear repulsion energy       248.7997866246 Hartrees.
 NAtoms=   17 NActive=   17 NUniq=   17 SFac= 1.00D+00 NAtFMM=   60 NAOKFM=F Big=F
 Integral buffers will be    131072 words long.
 Raffenetti 1 integral format.
 Two-electron integral symmetry is turned on.
 One-electron integrals computed using PRISM.
 NBasis=   112 RedAO= T EigKep=  3.12D-03  NBF=   112
 NBsUse=   112 1.00D-06 EigRej= -1.00D+00 NBFU=   112
 Initial guess from the checkpoint file:  "PRLD-DON-H22.chk"
 B after Tr=     0.000000   -0.000000    0.000000
         Rot=    0.999769    0.018795   -0.010428   -0.000111 Ang=   2.46 deg.
 ExpMin= 1.61D-01 ExpMax= 5.48D+03 ExpMxC= 8.25D+02 IAcc=2 IRadAn=         4 AccDes= 0.00D+00
 Harris functional with IExCor=  205 and IRadAn=       4 diagonalized for initial guess.
 HarFok:  IExCor=  205 AccDes= 0.00D+00 IRadAn=         4 IDoV= 1 UseB2=F ITyADJ=14
 ICtDFT=  3500011 ScaDFX=  1.000000  1.000000  1.000000  1.000000
 FoFCou: FMM=F IPFlag=           0 FMFlag=      100000 FMFlg1=           0
         NFxFlg=           0 DoJE=T BraDBF=F KetDBF=T FulRan=T
         wScrn=  0.000000 ICntrl=       500 IOpCl=  0 I1Cent=   200000004 NGrid=           0
         NMat0=    1 NMatS0=      1 NMatT0=    0 NMatD0=    1 NMtDS0=    0 NMtDT0=    0
 Petite list used in FoFCou.
 Keep R1 ints in memory in canonical form, NReq=20923536.
 Requested convergence on RMS density matrix=1.00D-08 within 128 cycles.
 Requested convergence on MAX density matrix=1.00D-06.
 Requested convergence on             energy=1.00D-06.
 No special actions if energy rises.
 SCF Done:  E(RHF) =  -287.153850656     A.U. after   12 cycles
            NFock= 12  Conv=0.30D-08     -V/T= 2.0017
 Calling FoFJK, ICntrl=      2127 FMM=F ISym2X=0 I1Cent= 0 IOpClX= 0 NMat=1 NMatS=1 NMatT=0.
 ***** Axes restored to original set *****
 -------------------------------------------------------------------
 Center     Atomic                   Forces (Hartrees/Bohr)
 Number     Number              X              Y              Z
 -------------------------------------------------------------------
      1        7           0.015647613   -0.005274020    0.006574300
      2        1          -0.009466252   -0.000565843   -0.012598070
      3        6          -0.007113063    0.007873712   -0.003476620
      4        1          -0.001853969   -0.007198604   -0.002112770
      5        1           0.006537471   -0.000990626    0.008283642
      6        6           0.005469526    0.003178361   -0.000463168
      7        1          -0.004522022   -0.001990909   -0.003683518
      8        1          -0.001670651   -0.000158116    0.006301765
      9        6           0.001515329   -0.006001711   -0.000046960
     10        1          -0.003249310    0.002186562   -0.004540682
     11        1           0.000198684    0.004104562    0.005618536
     12        6          -0.007610830    0.000395038    0.002423049
     13        1           0.002115802    0.003972942   -0.005574588
     14        1           0.005143695    0.000310742    0.005410153
     15        8          -0.009873769    0.002536173   -0.014369540
     16        1          -0.001301935   -0.000722608    0.010101737
     17        1           0.010033683   -0.001655655    0.002152734
 -------------------------------------------------------------------
 Cartesian Forces:  Max     0.015647613 RMS     0.005938521
 -----------------------------------------------------------------------------------------------
                       Internal Coordinate Forces (Hartree/Bohr or radian)
  Cent   Atom   N1       Length/X         N2         Alpha/Y        N3         Beta/Z          J
 -----------------------------------------------------------------------------------------------
      1  N            0.015648(     1)     -0.005274(    19)      0.006574(    37)
      2  H           -0.009466(     2)     -0.000566(    20)     -0.012598(    38)
      3  C           -0.007104(     3)      0.008275(    21)     -0.003399(    39)
      4  H           -0.001854(     4)     -0.007199(    22)     -0.002113(    40)
      5  H            0.005389(     5)     -0.001230(    23)      0.006089(    41)
      6  C            0.005466(     6)      0.003174(    24)     -0.000462(    42)
      7  H           -0.004522(     7)     -0.001991(    25)     -0.003684(    43)
      8  H           -0.001671(     8)     -0.000158(    26)      0.006302(    44)
      9  C            0.001515(     9)     -0.006002(    27)     -0.000047(    45)
     10  H           -0.003249(    10)      0.002187(    28)     -0.004541(    46)
     11  H            0.000199(    11)      0.004105(    29)      0.005619(    47)
     12  C           -0.007611(    12)      0.000395(    30)      0.002423(    48)
     13  H            0.002116(    13)      0.003973(    31)     -0.005575(    49)
     14  H            0.005144(    14)      0.000311(    32)      0.005410(    50)
         X        5   0.000000(    15)      3  -0.000142(    33)      6   0.000015(    51)     0
     15  O        5   0.002367(    16)     15  -0.000142(    34)      3   0.000822(    52)     0
     16  H       16  -0.010123(    17)      5  -0.002419(    35)     15  -0.000080(    53)     0
     17  H       16  -0.010155(    18)      5  -0.004016(    36)     15   0.000095(    54)     0
 -----------------------------------------------------------------------------------------------
 Internal  Forces:  Max     0.015647613 RMS     0.005218899

 GradGradGradGradGradGradGradGradGradGradGradGradGradGradGradGradGradGrad
 Berny optimization.
 Search for a local minimum.
 Step number   3 out of a maximum of  100
 All quantities printed in internal units (Hartrees-Bohrs-Radians)
 Update second derivatives using D2CorN and points    3
 The second derivative matrix:
                          rAH       dih
           rAH          0.02920
           dih          0.00610   0.00037
 ITU=  0  1  0
 Linear search step of   1.200 exceeds DXMaxT=   0.505 scaled by   0.841
 Quartic linear search produced a step of  1.68179.
 Variable       Old X    -DE/DX   Delta X   Delta X   Delta X     New X
                                 (Linear)    (Quad)   (Total)
   rAH        4.44530   0.00237   0.74655   0.00000   0.74655   5.19186
   dih       -0.60551   0.00001  -0.67889   0.00000  -0.67889  -1.28440
         Item               Value     Threshold  Converged?
 Maximum Force            0.002367     0.000450     NO 
 RMS     Force            0.001674     0.000300     NO 
 Maximum Displacement     0.746551     0.001800     NO 
 RMS     Displacement     0.713524     0.001200     NO 
 Predicted change in Energy=-3.373728D-03
 GradGradGradGradGradGradGradGradGradGradGradGradGradGradGradGradGradGrad

 ---------------------------------------------------------------------------------------------------
                            Z-MATRIX (ANGSTROMS AND DEGREES)
   CD    Cent   Atom    N1       Length/X        N2       Alpha/Y        N3        Beta/Z          J
 ---------------------------------------------------------------------------------------------------
      1      1  N        0   0.844000          0.456000          0.923000
      2      2  H        0   1.372000          0.495000          1.798000
      3      3  C        0   1.643000          1.125000         -0.113000
      4      4  H        0   2.000000          2.097000          0.243000
      5      5  H        0   0.987000          1.307000         -0.971000
      6      6  C        0   2.779000          0.153000         -0.504000
      7      7  H        0   3.689000          0.384000          0.059000
      8      8  H        0   3.031000          0.222000         -1.566000
      9      9  C        0   2.231000         -1.240000         -0.112000
     10     10  H        0   2.866000         -1.707000          0.647000
     11     11  H        0   2.185000         -1.928000         -0.962000
     12     12  C        0   0.830000         -0.941000          0.469000
     13     13  H        0   0.542000         -1.609000          1.286000
     14     14  H        0   0.068000         -1.027000         -0.314000
     15         X        5   1.000000(    14)      3   90.000(    30)      6  -73.591(    45)      0
     16     15  O        5   2.747412(    15)     15   90.000(    31)      3  180.000(    46)      0
     17     16  H       16   0.957200(    16)      5  127.740(    32)     15    0.000(    47)      0
     18     17  H       16   0.957200(    17)      5  127.740(    33)     15  180.000(    48)      0
 ---------------------------------------------------------------------------------------------------
                         Z-Matrix orientation:                         
 ---------------------------------------------------------------------
 Center     Atomic      Atomic             Coordinates (Angstroms)
 Number     Number       Type             X           Y           Z
 ---------------------------------------------------------------------
      1          7           0        0.844000    0.456000    0.923000
      2          1           0        1.372000    0.495000    1.798000
      3          6           0        1.643000    1.125000   -0.113000
      4          1           0        2.000000    2.097000    0.243000
      5          1           0        0.987000    1.307000   -0.971000
      6          6           0        2.779000    0.153000   -0.504000
      7          1           0        3.689000    0.384000    0.059000
      8          1           0        3.031000    0.222000   -1.566000
      9          6           0        2.231000   -1.240000   -0.112000
     10          1           0        2.866000   -1.707000    0.647000
     11          1           0        2.185000   -1.928000   -0.962000
     12          6           0        0.830000   -0.941000    0.469000
     13          1           0        0.542000   -1.609000    1.286000
     14          1           0        0.068000   -1.027000   -0.314000
     15         -1           0        1.692745    1.878793   -1.389301
     16          8           0       -0.658527    1.763534   -3.123229
     17          1           0       -0.475219    2.293708   -3.898822
     18          1           0       -1.543648    1.428070   -3.265556
 ---------------------------------------------------------------------
                    Distance matrix (angstroms):
                    1          2          3          4          5
     1  N    0.000000
     2  H    1.022707   0.000000
     3  C    1.469441   2.030335   0.000000
     4  H    2.119343   2.319227   1.094974   0.000000
     5  H    2.081318   2.911173   1.095274   1.767502   0.000000
     6  C    2.423296   2.719525   1.545368   2.223508   2.181987
     7  H    2.974173   2.899126   2.182838   2.412664   3.035397
     8  H    3.321573   3.760759   2.202989   2.801975   2.389390
     9  C    2.423099   2.719597   2.437000   3.363771   2.961862
    10  H    2.973757   2.899248   3.177035   3.922192   3.902917
    11  H    3.321891   3.761582   3.214868   4.205577   3.449712
    12  C    1.468986   2.030296   2.295223   3.263345   2.674276
    13  H    2.118301   2.319021   3.262539   4.116801   3.714180
    14  H    2.081258   2.911605   2.674347   3.715138   2.593023
    15  X    2.844547   3.489506   1.483113   1.675240   1.000000
    16  O    4.509900   5.472724   3.842685   4.302379   2.747412
    17  H    5.326113   6.253108   4.492792   4.829089   3.418161
    18  H    4.918311   5.917028   4.492792   5.031388   3.418161
                    6          7          8          9         10
     6  C    0.000000
     7  H    1.094728   0.000000
     8  H    1.093668   1.760634   0.000000
     9  C    1.547390   2.189151   2.211687   0.000000
    10  H    2.189057   2.322790   2.940346   1.094255   0.000000
    11  H    2.212049   2.941054   2.388102   1.094514   1.761103
    12  C    2.437656   3.177673   3.215306   1.545886   2.182598
    13  H    3.363467   3.921886   4.204948   2.223350   2.412240
    14  H    2.962773   3.904061   3.450634   2.182829   3.035577
    15  X    2.223077   2.883924   2.137080   3.412929   4.287302
    16  O    4.612024   5.561536   4.291141   5.141797   6.219447
    17  H    5.166952   6.054095   4.693358   5.843863   6.916206
    18  H    5.285572   6.286760   5.026977   5.595666   6.676956
                   11         12         13         14         15
    11  H    0.000000
    12  C    2.204077   0.000000
    13  H    2.802626   1.093918   0.000000
    14  H    2.390271   1.095960   1.767314   0.000000
    15  X    3.862198   3.485520   4.543804   3.498529   0.000000
    16  O    5.136533   4.736488   5.679485   4.025753   2.923742
    17  H    5.790035   5.589705   6.568732   4.916619   3.342143
    18  H    5.520180   5.019323   5.855799   4.163707   3.767986
                   16         17         18
    16  O    0.000000
    17  H    0.957200   0.000000
    18  H    0.957200   1.513901   0.000000
 Stoichiometry    C4H11NO
 Framework group  C1[X(C4H11NO)]
 Deg. of freedom    45
 Full point group                 C1      NOp   1
 Largest Abelian subgroup         C1      NOp   1
 Largest concise Abelian subgroup C1      NOp   1
                         Standard orientation:                         
 ---------------------------------------------------------------------
 Center     Atomic      Atomic             Coordinates (Angstroms)
 Number     Number       Type             X           Y           Z
 ---------------------------------------------------------------------
      1          7           0        0.755223   -0.980291    0.879388
      2          1           0        1.624017   -0.946851    1.417912
      3          6           0        0.111947    0.336723    0.983926
      4          1           0        0.071329    0.664300    2.027963
      5          1           0       -0.919008    0.230687    0.629651
      6          6           0        0.898530    1.296993    0.063421
      7          1           0        1.651196    1.845494    0.638809
      8          1           0        0.248002    2.039900   -0.406699
      9          6           0        1.572439    0.359516   -0.966821
     10          1           0        2.662277    0.438123   -0.907922
     11          1           0        1.287311    0.593294   -1.997360
     12          6           0        1.111747   -1.054184   -0.543761
     13          1           0        1.864262   -1.829924   -0.712892
     14          1           0        0.209858   -1.340865   -1.096517
     15          8           0       -3.505083   -0.035297   -0.259023
     16          1           0       -4.215127    0.603454   -0.195254
     17          1           0       -3.897993   -0.787489   -0.701810
 ---------------------------------------------------------------------
 Rotational constants (GHZ):           4.2752382           1.3922911           1.3415887
 Standard basis: 6-31G(d) (6D, 7F)
 There are   112 symmetry adapted cartesian basis functions of A   symmetry.
 There are   112 symmetry adapted basis functions of A   symmetry.
   112 basis functions,   212 primitive gaussians,   112 cartesian basis functions
    25 alpha electrons       25 beta electrons
       nuclear repulsion energy       244.7730320708 Hartrees.
 NAtoms=   17 NActive=   17 NUniq=   17 SFac= 1.00D+00 NAtFMM=   60 NAOKFM=F Big=F
 Integral buffers will be    131072 words long.
 Raffenetti 1 integral format.
 Two-electron integral symmetry is turned on.
 One-electron integrals computed using PRISM.
 NBasis=   112 RedAO= T EigKep=  3.14D-03  NBF=   112
 NBsUse=   112 1.00D-06 EigRej= -1.00D+00 NBFU=   112
 Initial guess from the checkpoint file:  "PRLD-DON-H22.chk"
 B after Tr=    -0.000000   -0.000000   -0.000000
         Rot=    0.998779    0.047688   -0.012866    0.000973 Ang=   5.66 deg.
 ExpMin= 1.61D-01 ExpMax= 5.48D+03 ExpMxC= 8.25D+02 IAcc=2 IRadAn=         4 AccDes= 0.00D+00
 Harris functional with IExCor=  205 and IRadAn=       4 diagonalized for initial guess.
 HarFok:  IExCor=  205 AccDes= 0.00D+00 IRadAn=         4 IDoV= 1 UseB2=F ITyADJ=14
 ICtDFT=  3500011 ScaDFX=  1.000000  1.000000  1.000000  1.000000
 FoFCou: FMM=F IPFlag=           0 FMFlag=      100000 FMFlg1=           0
         NFxFlg=           0 DoJE=T BraDBF=F KetDBF=T FulRan=T
         wScrn=  0.000000 ICntrl=       500 IOpCl=  0 I1Cent=   200000004 NGrid=           0
         NMat0=    1 NMatS0=      1 NMatT0=    0 NMatD0=    1 NMtDS0=    0 NMtDT0=    0
 Petite list used in FoFCou.
 Keep R1 ints in memory in canonical form, NReq=20922359.
 Requested convergence on RMS density matrix=1.00D-08 within 128 cycles.
 Requested convergence on MAX density matrix=1.00D-06.
 Requested convergence on             energy=1.00D-06.
 No special actions if energy rises.
 SCF Done:  E(RHF) =  -287.154518899     A.U. after   12 cycles
            NFock= 12  Conv=0.61D-08     -V/T= 2.0018
 Calling FoFJK, ICntrl=      2127 FMM=F ISym2X=0 I1Cent= 0 IOpClX= 0 NMat=1 NMatS=1 NMatT=0.
 ***** Axes restored to original set *****
 -------------------------------------------------------------------
 Center     Atomic                   Forces (Hartrees/Bohr)
 Number     Number              X              Y              Z
 -------------------------------------------------------------------
      1        7           0.015758530   -0.005163091    0.005949094
      2        1          -0.009485469   -0.000339799   -0.012704680
      3        6          -0.006344814    0.007432753   -0.001910456
      4        1          -0.002163148   -0.007235888   -0.002459420
      5        1           0.005091419   -0.000611673    0.006428539
      6        6           0.005412796    0.003075612   -0.001101692
      7        1          -0.004725906   -0.001822095   -0.003607700
      8        1          -0.001719719   -0.000163023    0.006430660
      9        6           0.001480232   -0.006087674   -0.000050539
     10        1          -0.003279609    0.002228073   -0.004551302
     11        1           0.000210416    0.004196018    0.005641338
     12        6          -0.007398271    0.000271290    0.002529896
     13        1           0.002070972    0.004060615   -0.005646861
     14        1           0.005027336    0.000191364    0.005454456
     15        8          -0.008771931    0.002292259   -0.012717860
     16        1          -0.000700964   -0.005301611    0.008976242
     17        1           0.009538131    0.002976870    0.003340286
 -------------------------------------------------------------------
 Cartesian Forces:  Max     0.015758530 RMS     0.005727349
 -----------------------------------------------------------------------------------------------
                       Internal Coordinate Forces (Hartree/Bohr or radian)
  Cent   Atom   N1       Length/X         N2         Alpha/Y        N3         Beta/Z          J
 -----------------------------------------------------------------------------------------------
      1  N            0.015759(     1)     -0.005163(    19)      0.005949(    37)
      2  H           -0.009485(     2)     -0.000340(    20)     -0.012705(    38)
      3  C           -0.006482(     3)      0.007755(    21)     -0.001738(    39)
      4  H           -0.002163(     4)     -0.007236(    22)     -0.002459(    40)
      5  H            0.005349(     5)     -0.000891(    23)      0.005828(    41)
      6  C            0.005358(     6)      0.003001(    24)     -0.001075(    42)
      7  H           -0.004726(     7)     -0.001822(    25)     -0.003608(    43)
      8  H           -0.001720(     8)     -0.000163(    26)      0.006431(    44)
      9  C            0.001480(     9)     -0.006088(    27)     -0.000051(    45)
     10  H           -0.003280(    10)      0.002228(    28)     -0.004551(    46)
     11  H            0.000210(    11)      0.004196(    29)      0.005641(    47)
     12  C           -0.007398(    12)      0.000271(    30)      0.002530(    48)
     13  H            0.002071(    13)      0.004061(    31)     -0.005647(    49)
     14  H            0.005027(    14)      0.000191(    32)      0.005454(    50)
         X        5  -0.000000(    15)      3  -0.000254(    33)      6   0.000265(    51)     0
     15  O        5   0.000270(    16)     15  -0.000254(    34)      3   0.000723(    52)     0
     16  H       16  -0.010344(    17)      5  -0.002657(    35)     15  -0.000190(    53)     0
     17  H       16  -0.010360(    18)      5  -0.003417(    36)     15   0.000455(    54)     0
 -----------------------------------------------------------------------------------------------
 Internal  Forces:  Max     0.015758530 RMS     0.005170358

 GradGradGradGradGradGradGradGradGradGradGradGradGradGradGradGradGradGrad
 Berny optimization.
 Search for a local minimum.
 Step number   4 out of a maximum of  100
 All quantities printed in internal units (Hartrees-Bohrs-Radians)
 Update second derivatives using D2CorN and points    4
 The second derivative matrix:
                          rAH       dih
           rAH          0.02920
           dih          0.00610   0.00037
 ITU=  0  0  1
     Eigenvalues ---   -0.00086   0.03043
 RFO step:  Lambda=-9.05499389D-04 EMin=-8.63409570D-04
 I=     1 Eig=   -8.63D-04 Dot1=  1.17D-04
 I=     1 Stepn=  6.00D-01 RXN=   6.00D-01 EDone=F
 Mixed    1 eigenvectors in step.  Raw Step.Grad=  1.17D-04.
 RFO eigenvector is Hessian eigenvector with negative curvature.
 Taking step of  6.00D-01 in eigenvector direction(s).  Step.Grad= -1.33D-04.
 Quartic linear search produced a step of  0.03897.
 Maximum step size (   0.505) exceeded in Quadratic search.
    -- Step size scaled by   0.841
 Variable       Old X    -DE/DX   Delta X   Delta X   Delta X     New X
                                 (Linear)    (Quad)   (Total)
   rAH        5.19186   0.00027   0.02909  -0.10034  -0.07125   5.12061
   dih       -1.28440   0.00026  -0.02646   0.49446   0.46800  -0.81640
         Item               Value     Threshold  Converged?
 Maximum Force            0.000270     0.000450     YES
 RMS     Force            0.000267     0.000300     YES
 Maximum Displacement     0.468002     0.001800     NO 
 RMS     Displacement     0.334740     0.001200     NO 
 Predicted change in Energy=-1.930169D-04
 GradGradGradGradGradGradGradGradGradGradGradGradGradGradGradGradGradGrad

 ---------------------------------------------------------------------------------------------------
                            Z-MATRIX (ANGSTROMS AND DEGREES)
   CD    Cent   Atom    N1       Length/X        N2       Alpha/Y        N3        Beta/Z          J
 ---------------------------------------------------------------------------------------------------
      1      1  N        0   0.844000          0.456000          0.923000
      2      2  H        0   1.372000          0.495000          1.798000
      3      3  C        0   1.643000          1.125000         -0.113000
      4      4  H        0   2.000000          2.097000          0.243000
      5      5  H        0   0.987000          1.307000         -0.971000
      6      6  C        0   2.779000          0.153000         -0.504000
      7      7  H        0   3.689000          0.384000          0.059000
      8      8  H        0   3.031000          0.222000         -1.566000
      9      9  C        0   2.231000         -1.240000         -0.112000
     10     10  H        0   2.866000         -1.707000          0.647000
     11     11  H        0   2.185000         -1.928000         -0.962000
     12     12  C        0   0.830000         -0.941000          0.469000
     13     13  H        0   0.542000         -1.609000          1.286000
     14     14  H        0   0.068000         -1.027000         -0.314000
     15         X        5   1.000000(    14)      3   90.000(    30)      6  -46.776(    45)      0
     16     15  O        5   2.709708(    15)     15   90.000(    31)      3  180.000(    46)      0
     17     16  H       16   0.957200(    16)      5  127.740(    32)     15    0.000(    47)      0
     18     17  H       16   0.957200(    17)      5  127.740(    33)     15  180.000(    48)      0
 ---------------------------------------------------------------------------------------------------
                         Z-Matrix orientation:                         
 ---------------------------------------------------------------------
 Center     Atomic      Atomic             Coordinates (Angstroms)
 Number     Number       Type             X           Y           Z
 ---------------------------------------------------------------------
      1          7           0        0.844000    0.456000    0.923000
      2          1           0        1.372000    0.495000    1.798000
      3          6           0        1.643000    1.125000   -0.113000
      4          1           0        2.000000    2.097000    0.243000
      5          1           0        0.987000    1.307000   -0.971000
      6          6           0        2.779000    0.153000   -0.504000
      7          1           0        3.689000    0.384000    0.059000
      8          1           0        3.031000    0.222000   -1.566000
      9          6           0        2.231000   -1.240000   -0.112000
     10          1           0        2.866000   -1.707000    0.647000
     11          1           0        2.185000   -1.928000   -0.962000
[...]
 Variable       Old X    -DE/DX   Delta X   Delta X   Delta X     New X
                                 (Linear)    (Quad)   (Total)
   rAH        5.36004   0.00000   0.00024   0.00097   0.00121   5.36126
   dih       -0.61165  -0.00000  -0.00133   0.00033  -0.00100  -0.61265
         Item               Value     Threshold  Converged?
 Maximum Force            0.000001     0.000450     YES
 RMS     Force            0.000001     0.000300     YES
 Maximum Displacement     0.001214     0.001800     YES
 RMS     Displacement     0.001110     0.001200     YES
 Predicted change in Energy=-9.791671D-10
 Optimization completed.
    -- Stationary point found.
                       ----------------------------
                       !   Optimized Parameters   !
                       ! (Angstroms and Degrees)  !
 ----------------------                            ----------------------
 !      Name          Value   Derivative information (Atomic Units)     !
 ------------------------------------------------------------------------
 !       rAH         2.8364   -DE/DX =    0.0                           !
 !       dih       -35.045    -DE/DX =    0.0                           !
 ------------------------------------------------------------------------
 GradGradGradGradGradGradGradGradGradGradGradGradGradGradGradGradGradGrad

 ---------------------------------------------------------------------------------------------------
                            Z-MATRIX (ANGSTROMS AND DEGREES)
   CD    Cent   Atom    N1       Length/X        N2       Alpha/Y        N3        Beta/Z          J
 ---------------------------------------------------------------------------------------------------
      1      1  N        0   0.844000          0.456000          0.923000
      2      2  H        0   1.372000          0.495000          1.798000
      3      3  C        0   1.643000          1.125000         -0.113000
      4      4  H        0   2.000000          2.097000          0.243000
      5      5  H        0   0.987000          1.307000         -0.971000
      6      6  C        0   2.779000          0.153000         -0.504000
      7      7  H        0   3.689000          0.384000          0.059000
      8      8  H        0   3.031000          0.222000         -1.566000
      9      9  C        0   2.231000         -1.240000         -0.112000
     10     10  H        0   2.866000         -1.707000          0.647000
     11     11  H        0   2.185000         -1.928000         -0.962000
     12     12  C        0   0.830000         -0.941000          0.469000
     13     13  H        0   0.542000         -1.609000          1.286000
     14     14  H        0   0.068000         -1.027000         -0.314000
     15         X        5   1.000000(    14)      3   90.000(    30)      6  -35.045(    45)      0
     16     15  O        5   2.836413(    15)     15   90.000(    31)      3  180.000(    46)      0
     17     16  H       16   0.957200(    16)      5  127.740(    32)     15    0.000(    47)      0
     18     17  H       16   0.957200(    17)      5  127.740(    33)     15  180.000(    48)      0
 ---------------------------------------------------------------------------------------------------
                         Z-Matrix orientation:                         
 ---------------------------------------------------------------------
 Center     Atomic      Atomic             Coordinates (Angstroms)
 Number     Number       Type             X           Y           Z
 ---------------------------------------------------------------------
      1          7           0        0.844000    0.456000    0.923000
      2          1           0        1.372000    0.495000    1.798000
      3          6           0        1.643000    1.125000   -0.113000
      4          1           0        2.000000    2.097000    0.243000
      5          1           0        0.987000    1.307000   -0.971000
      6          6           0        2.779000    0.153000   -0.504000
      7          1           0        3.689000    0.384000    0.059000
      8          1           0        3.031000    0.222000   -1.566000
      9          6           0        2.231000   -1.240000   -0.112000
     10          1           0        2.866000   -1.707000    0.647000
     11          1           0        2.185000   -1.928000   -0.962000
     12          6           0        0.830000   -0.941000    0.469000
     13          1           0        0.542000   -1.609000    1.286000
     14          1           0        0.068000   -1.027000   -0.314000
     15         -1           0        1.774776    1.253579   -1.584641
     16          8           0       -0.711833    1.778323   -3.192949
     17          1           0       -0.466432    1.835241   -4.116405
     18          1           0       -1.659047    1.916115   -3.187414
 ---------------------------------------------------------------------
                    Distance matrix (angstroms):
                    1          2          3          4          5
     1  N    0.000000
     2  H    1.022707   0.000000
     3  C    1.469441   2.030335   0.000000
     4  H    2.119343   2.319227   1.094974   0.000000
     5  H    2.081318   2.911173   1.095274   1.767502   0.000000
     6  C    2.423296   2.719525   1.545368   2.223508   2.181987
     7  H    2.974173   2.899126   2.182838   2.412664   3.035397
     8  H    3.321573   3.760759   2.202989   2.801975   2.389390
     9  C    2.423099   2.719597   2.437000   3.363771   2.961862
    10  H    2.973757   2.899248   3.177035   3.922192   3.902917
    11  H    3.321891   3.761582   3.214868   4.205577   3.449712
    12  C    1.468986   2.030296   2.295223   3.263345   2.674276
    13  H    2.118301   2.319021   3.262539   4.116801   3.714180
    14  H    2.081258   2.911605   2.674347   3.715138   2.593023
    15  X    2.791189   3.489976   1.483113   2.025427   1.000000
    16  O    4.594583   5.558673   3.931686   4.388774   2.836413
    17  H    5.386570   6.336897   4.580546   5.015597   3.505007
    18  H    5.029183   6.005095   4.580546   5.018873   3.505007
                    6          7          8          9         10
     6  C    0.000000
     7  H    1.094728   0.000000
     8  H    1.093668   1.760634   0.000000
     9  C    1.547390   2.189151   2.211687   0.000000
    10  H    2.189057   2.322790   2.940346   1.094255   0.000000
    11  H    2.212049   2.941054   2.388102   1.094514   1.761103
    12  C    2.437656   3.177673   3.215306   1.545886   2.182598
    13  H    3.363467   3.921886   4.204948   2.223350   2.412240
    14  H    2.962773   3.904061   3.450634   2.182829   3.035577
    15  X    1.840523   2.668703   1.625608   2.931680   3.864714
    16  O    4.696598   5.646826   4.367826   5.221378   6.300284
    17  H    5.139283   6.066937   4.619431   5.724378   6.807540
    18  H    5.477732   6.441132   5.243620   5.878069   6.950233
                   11         12         13         14         15
    11  H    0.000000
    12  C    2.204077   0.000000
    13  H    2.802626   1.093918   0.000000
    14  H    2.390271   1.095960   1.767314   0.000000
    15  X    3.267784   3.150590   4.237295   3.119079   0.000000
    16  O    5.206304   4.814752   5.753872   4.094670   3.007530
    17  H    5.580533   5.514906   6.485808   4.789188   3.430915
    18  H    5.874214   5.265722   6.105938   4.461068   3.846944
                   16         17         18
    16  O    0.000000
    17  H    0.957200   0.000000
    18  H    0.957200   1.513901   0.000000
 Stoichiometry    C4H11NO
 Framework group  C1[X(C4H11NO)]
 Deg. of freedom    45
 Full point group                 C1      NOp   1
 Largest Abelian subgroup         C1      NOp   1
 Largest concise Abelian subgroup C1      NOp   1
                         Standard orientation:                         
 ---------------------------------------------------------------------
 Center     Atomic      Atomic             Coordinates (Angstroms)
 Number     Number       Type             X           Y           Z
 ---------------------------------------------------------------------
      1          7           0        0.776103   -1.054102    0.789659
      2          1           0        1.649847   -1.070236    1.320922
      3          6           0        0.138954    0.250865    1.014073
      4          1           0        0.109043    0.486711    2.082927
      5          1           0       -0.895565    0.179190    0.661569
      6          6           0        0.920945    1.284955    0.173056
      7          1           0        1.680914    1.779097    0.786815
      8          1           0        0.269112    2.067884   -0.224742
      9          6           0        1.581854    0.438343   -0.940885
     10          1           0        2.672479    0.508148   -0.885562
     11          1           0        1.288352    0.761573   -1.944548
     12          6           0        1.119474   -1.005300   -0.637799
     13          1           0        1.867391   -1.765772   -0.880615
     14          1           0        0.211517   -1.240112   -1.204903
     15          8           0       -3.574641   -0.006427   -0.251302
     16          1           0       -4.126288    0.695992   -0.595578
     17          1           0       -4.129760   -0.785526   -0.284147
 ---------------------------------------------------------------------
 Rotational constants (GHZ):           4.2624763           1.3518453           1.3030906

 **********************************************************************

            Population analysis using the SCF density.

 **********************************************************************

 Orbital symmetries:
       Occupied  (A) (A) (A) (A) (A) (A) (A) (A) (A) (A) (A) (A)
                 (A) (A) (A) (A) (A) (A) (A) (A) (A) (A) (A) (A)
                 (A)
       Virtual   (A) (A) (A) (A) (A) (A) (A) (A) (A) (A) (A) (A)
                 (A) (A) (A) (A) (A) (A) (A) (A) (A) (A) (A) (A)
                 (A) (A) (A) (A) (A) (A) (A) (A) (A) (A) (A) (A)
                 (A) (A) (A) (A) (A) (A) (A) (A) (A) (A) (A) (A)
                 (A) (A) (A) (A) (A) (A) (A) (A) (A) (A) (A) (A)
                 (A) (A) (A) (A) (A) (A) (A) (A) (A) (A) (A) (A)
                 (A) (A) (A) (A) (A) (A) (A) (A) (A) (A) (A) (A)
                 (A) (A) (A)
 The electronic state is 1-A.
 Alpha  occ. eigenvalues --  -20.56345 -15.52979 -11.23229 -11.22643 -11.20948
 Alpha  occ. eigenvalues --  -11.20766  -1.34434  -1.20526  -1.00906  -0.95751
 Alpha  occ. eigenvalues --   -0.80238  -0.77297  -0.70942  -0.66404  -0.62654
 Alpha  occ. eigenvalues --   -0.57951  -0.57696  -0.56845  -0.50064  -0.49505
 Alpha  occ. eigenvalues --   -0.48086  -0.46874  -0.46549  -0.44627  -0.36158
 Alpha virt. eigenvalues --    0.20404   0.22327   0.26214   0.29543   0.30107
 Alpha virt. eigenvalues --    0.30377   0.31796   0.33563   0.34850   0.36015
 Alpha virt. eigenvalues --    0.37471   0.39090   0.42095   0.42529   0.49597
 Alpha virt. eigenvalues --    0.53535   0.73889   0.77261   0.77714   0.80788
 Alpha virt. eigenvalues --    0.81365   0.84989   0.91538   0.93079   0.93700
 Alpha virt. eigenvalues --    0.95850   1.02052   1.02779   1.03365   1.07588
 Alpha virt. eigenvalues --    1.11001   1.13063   1.14087   1.14934   1.15980
 Alpha virt. eigenvalues --    1.16376   1.16927   1.18333   1.21196   1.21993
 Alpha virt. eigenvalues --    1.23755   1.24770   1.25170   1.37853   1.39877
 Alpha virt. eigenvalues --    1.43834   1.51311   1.53850   1.60427   1.61412
 Alpha virt. eigenvalues --    1.70526   1.92116   2.01866   2.03119   2.03987
 Alpha virt. eigenvalues --    2.06491   2.09921   2.13324   2.14790   2.21019
 Alpha virt. eigenvalues --    2.23891   2.30151   2.32825   2.36199   2.43464
 Alpha virt. eigenvalues --    2.44418   2.44563   2.52152   2.58400   2.60512
 Alpha virt. eigenvalues --    2.62462   2.72526   2.74833   2.82858   2.91090
 Alpha virt. eigenvalues --    2.94478   2.96743   2.98993   2.99944   3.03919
 Alpha virt. eigenvalues --    3.25230   3.99880   4.36209   4.61886   4.70277
 Alpha virt. eigenvalues --    4.88268   5.05940
          Condensed to atoms (all electrons):
               1          2          3          4          5          6
     1  N    7.061245   0.326610   0.288117  -0.034201  -0.043372  -0.084814
     2  H    0.326610   0.440853  -0.042755  -0.005519   0.005218  -0.000716
     3  C    0.288117  -0.042755   5.009957   0.401998   0.404777   0.329895
     4  H   -0.034201  -0.005519   0.401998   0.530408  -0.023817  -0.036892
     5  H   -0.043372   0.005218   0.404777  -0.023817   0.489258  -0.049264
     6  C   -0.084814  -0.000716   0.329895  -0.036892  -0.049264   5.204091
     7  H    0.002681   0.001027  -0.038518  -0.004279   0.003495   0.394982
     8  H    0.004386  -0.000025  -0.031964   0.001351  -0.002152   0.391313
     9  C   -0.085724  -0.000771  -0.061057   0.003971  -0.000462   0.322524
    10  H    0.002720   0.000977   0.003239  -0.000165  -0.000012  -0.038645
    11  H    0.004408  -0.000025   0.002955  -0.000065   0.000147  -0.033264
    12  C    0.296179  -0.043114  -0.093349   0.006194  -0.001948  -0.061775
    13  H   -0.033844  -0.005569   0.006149  -0.000120  -0.000147   0.003895
    14  H   -0.046810   0.005745  -0.001528  -0.000169   0.003115  -0.000453
    15  O    0.000012  -0.000000  -0.001466   0.000006   0.006369   0.000019
    16  H   -0.000001   0.000000   0.000065  -0.000001  -0.000190  -0.000003
    17  H   -0.000002   0.000000   0.000065  -0.000001  -0.000188  -0.000001
               7          8          9         10         11         12
     1  N    0.002681   0.004386  -0.085724   0.002720   0.004408   0.296179
     2  H    0.001027  -0.000025  -0.000771   0.000977  -0.000025  -0.043114
     3  C   -0.038518  -0.031964  -0.061057   0.003239   0.002955  -0.093349
     4  H   -0.004279   0.001351   0.003971  -0.000165  -0.000065   0.006194
     5  H    0.003495  -0.002152  -0.000462  -0.000012   0.000147  -0.001948
     6  C    0.394982   0.391313   0.322524  -0.038645  -0.033264  -0.061775
     7  H    0.551724  -0.026694  -0.039117  -0.006464   0.002667   0.003291
     8  H   -0.026694   0.529555  -0.033303   0.002654  -0.003720   0.002969
     9  C   -0.039117  -0.033303   5.203746   0.395174   0.390721   0.335156
    10  H   -0.006464   0.002654   0.395174   0.549223  -0.026553  -0.038666
    11  H    0.002667  -0.003720   0.390721  -0.026553   0.531814  -0.032221
    12  C    0.003291   0.002969   0.335156  -0.038666  -0.032221   4.974109
    13  H   -0.000164  -0.000065  -0.036018  -0.004307   0.001391   0.402855
    14  H   -0.000013   0.000172  -0.053078   0.003840  -0.002474   0.405798
    15  O   -0.000000   0.000002   0.000001  -0.000000  -0.000000  -0.000013
    16  H    0.000000   0.000001  -0.000000   0.000000   0.000000   0.000000
    17  H    0.000000  -0.000000  -0.000000   0.000000   0.000000   0.000001
              13         14         15         16         17
     1  N   -0.033844  -0.046810   0.000012  -0.000001  -0.000002
     2  H   -0.005569   0.005745  -0.000000   0.000000   0.000000
     3  C    0.006149  -0.001528  -0.001466   0.000065   0.000065
     4  H   -0.000120  -0.000169   0.000006  -0.000001  -0.000001
     5  H   -0.000147   0.003115   0.006369  -0.000190  -0.000188
     6  C    0.003895  -0.000453   0.000019  -0.000003  -0.000001
     7  H   -0.000164  -0.000013  -0.000000   0.000000   0.000000
     8  H   -0.000065   0.000172   0.000002   0.000001  -0.000000
     9  C   -0.036018  -0.053078   0.000001  -0.000000  -0.000000
    10  H   -0.004307   0.003840  -0.000000   0.000000   0.000000
    11  H    0.001391  -0.002474  -0.000000   0.000000   0.000000
    12  C    0.402855   0.405798  -0.000013   0.000000   0.000001
    13  H    0.529613  -0.026972   0.000000  -0.000000  -0.000000
    14  H   -0.026972   0.540573   0.000064  -0.000001   0.000001
    15  O    0.000000   0.000064   8.329575   0.264330   0.265115
    16  H   -0.000000  -0.000001   0.264330   0.320514  -0.018297
    17  H   -0.000000   0.000001   0.265115  -0.018297   0.316725
 Mulliken charges:
               1
     1  N   -0.657592
     2  H    0.318065
     3  C   -0.176579
     4  H    0.161300
     5  H    0.209172
     6  C   -0.340892
     7  H    0.155383
     8  H    0.165522
     9  C   -0.341762
    10  H    0.156984
    11  H    0.164219
    12  C   -0.155465
    13  H    0.163304
    14  H    0.172190
    15  O   -0.864013
    16  H    0.433582
    17  H    0.436583
 Sum of Mulliken charges =  -0.00000
 Mulliken charges with hydrogens summed into heavy atoms:
               1
     1  N   -0.339527
     3  C    0.193892
     6  C   -0.019986
     9  C   -0.020559
    12  C    0.180028
    15  O    0.006152
 Electronic spatial extent (au):  <R**2>=           1006.3561
 Charge=              0.0000 electrons
 Dipole moment (field-independent basis, Debye):
    X=             -1.5162    Y=              1.0123    Z=             -1.0779  Tot=              2.1179
 Quadrupole moment (field-independent basis, Debye-Ang):
   XX=            -20.4241   YY=            -40.1368   ZZ=            -38.6717
   XY=             -0.5539   XZ=              5.0007   YZ=              1.3644
 Traceless Quadrupole moment (field-independent basis, Debye-Ang):
   XX=             12.6534   YY=             -7.0593   ZZ=             -5.5942
   XY=             -0.5539   XZ=              5.0007   YZ=              1.3644
 Octapole moment (field-independent basis, Debye-Ang**2):
  XXX=           -106.5799  YYY=              2.1769  ZZZ=              1.6702  XYY=            -15.8562
  XXY=             -7.3720  XXZ=            -13.9402  XZZ=             -5.2002  YZZ=              1.2891
  YYZ=             -4.8148  XYZ=              2.0597
 Hexadecapole moment (field-independent basis, Debye-Ang**3):
 XXXX=           -322.1706 YYYY=           -243.8948 ZZZZ=           -190.2041 XXXY=              4.2491
 XXXZ=             95.7675 YYYX=             -3.8691 YYYZ=              4.7612 ZZZX=             14.3494
 ZZZY=             -0.6685 XXYY=           -130.4889 XXZZ=           -160.0713 YYZZ=            -74.1650
 XXYZ=             -9.8747 YYXZ=              7.6408 ZZXY=             -4.1209
 N-N= 2.439467904590D+02 E-N=-1.160841675789D+03  KE= 2.866471157038D+02
 1\1\GINC-C403-123\FOpt\RHF\6-31G(d)\C4H11N1O1\TG455515\31-Mar-2021\1\\
 # HF/6-31G* Opt=(Z-matrix,MaxCycles=100) Geom=PrintInputOrient\\<qmtoo
 l> simtype="Geometry optimization" </qmtool> PRLD-DON-H22\\0,1\N,0,0.8
 439999819,0.4560000002,0.9229999781\H,0,1.371999979,0.4950000048,1.797
 9999781\C,0,1.6430000067,1.125,-0.112999998\H,0,2.,2.0969998837,0.2430
 000007\H,0,0.9869999886,1.307000041,-0.9710000157\C,0,2.7790000439,0.1
 529999971,-0.5040000081\H,0,3.6889998913,0.3840000033,0.0590000004\H,0
 ,3.0309998989,0.2220000029,-1.5659999847\C,0,2.2309999466,-1.240000009
 5,-0.1120000035\H,0,2.8659999371,-1.7070000172,0.6470000148\H,0,2.1849
 999428,-1.9279999733,-0.9620000124\C,0,0.8299999833,-0.9409999847,0.46
 90000117\H,0,0.5419999957,-1.6089999676,1.2860000134\H,0,0.0680000037,
 -1.0269999504,-0.3140000105\X,5,1.,3,90.,6,dih,0\O,5,rAH,15,90.,3,180.
 ,0\H,16,0.9572,5,127.74,15,0.,0\H,16,0.9572,5,127.74,15,180.,0\\rAH=2.
 83641262\dih=-35.04499687\\Version=ES64L-G16RevA.03\State=1-A\HF=-287.
 154642\RMSD=7.254e-09\RMSF=5.709e-03\Dipole=-0.0459131,-0.0299578,-0.8
 314336\Quadrupole=-0.6998335,-3.8669445,4.566778,-1.2259867,6.9868341,
 -3.6367767\PG=C01 [X(C4H11N1O1)]\\@


 There are more things in heaven and earth, Horatio,
 than are dreamt of in your philosophy.
                   -- Hamlet, Act I, Scene 5
 Job cpu time:       0 days  0 hours  4 minutes  2.6 seconds.
 Elapsed time:       0 days  0 hours  3 minutes 59.9 seconds.
 File lengths (MBytes):  RWF=     10 Int=      0 D2E=      0 Chk=      2 Scr=      1
 Normal termination of Gaussian 16 at Wed Mar 31 17:11:46 2021.
