 Entering Gaussian System, Link 0=g16
 Initial command:
 /home1/apps/gaussian/16rA.03/g16/l1.exe "/tmp/Gau-271902.inp" -scrdir="/tmp/"
 Entering Link 1 = /home1/apps/gaussian/16rA.03/g16/l1.exe PID=    271903.
  
 Copyright (c) 1988,1990,1992,1993,1995,1998,2003,2009,2016,
            Gaussian, Inc.  All Rights Reserved.
  
 This is part of the Gaussian(R) 16 program.  It is based on
 the Gaussian(R) 09 system (copyright 2009, Gaussian, Inc.),
 the Gaussian(R) 03 system (copyright 2003, Gaussian, Inc.),
 the Gaussian(R) 98 system (copyright 1998, Gaussian, Inc.),
 the Gaussian(R) 94 system (copyright 1995, Gaussian, Inc.),
 the Gaussian 92(TM) system (copyright 1992, Gaussian, Inc.),
 the Gaussian 90(TM) system (copyright 1990, Gaussian, Inc.),
 the Gaussian 88(TM) system (copyright 1988, Gaussian, Inc.),
 the Gaussian 86(TM) system (copyright 1986, Carnegie Mellon
 University), and the Gaussian 82(TM) system (copyright 1983,
 Carnegie Mellon University). Gaussian is a federally registered
 trademark of Gaussian, Inc.
  
 This software contains proprietary and confidential information,
 including trade secrets, belonging to Gaussian, Inc.
  
 This software is provided under written license and may be
 used, copied, transmitted, or stored only in accord with that
 written license.
  
 The following legend is applicable only to US Government
 contracts under FAR:
  
                    RESTRICTED RIGHTS LEGEND
  
 Use, reproduction and disclosure by the US Government is
 subject to restrictions as set forth in subparagraphs (a)
 and (c) of the Commercial Computer Software - Restricted
 Rights clause in FAR 52.227-19.
  
 Gaussian, Inc.
 340 Quinnipiac St., Bldg. 40, Wallingford CT 06492
  
  
 ---------------------------------------------------------------
 Warning -- This program may not be used in any manner that
 competes with the business of Gaussian, Inc. or will provide
 assistance to any competitor of Gaussian, Inc.  The licensee
 of this program is prohibited from giving any competitor of
 Gaussian, Inc. access to this program.  By using this program,
 the user acknowledges that Gaussian, Inc. is engaged in the
 business of creating and licensing software in the field of
 computational chemistry and represents and warrants to the
 licensee that it is not a competitor of Gaussian, Inc. and that
 it will not use this program in any manner prohibited above.
 ---------------------------------------------------------------
  

 Cite this work as:
 Gaussian 16, Revision A.03,
 M. J. Frisch, G. W. Trucks, H. B. Schlegel, G. E. Scuseria, 
 M. A. Robb, J. R. Cheeseman, G. Scalmani, V. Barone, 
 G. A. Petersson, H. Nakatsuji, X. Li, M. Caricato, A. V. Marenich, 
 J. Bloino, B. G. Janesko, R. Gomperts, B. Mennucci, H. P. Hratchian, 
 J. V. Ortiz, A. F. Izmaylov, J. L. Sonnenberg, D. Williams-Young, 
 F. Ding, F. Lipparini, F. Egidi, J. Goings, B. Peng, A. Petrone, 
 T. Henderson, D. Ranasinghe, V. G. Zakrzewski, J. Gao, N. Rega, 
 G. Zheng, W. Liang, M. Hada, M. Ehara, K. Toyota, R. Fukuda, 
 J. Hasegawa, M. Ishida, T. Nakajima, Y. Honda, O. Kitao, H. Nakai, 
 T. Vreven, K. Throssell, J. A. Montgomery, Jr., J. E. Peralta, 
 F. Ogliaro, M. J. Bearpark, J. J. Heyd, E. N. Brothers, K. N. Kudin, 
 V. N. Staroverov, T. A. Keith, R. Kobayashi, J. Normand, 
 K. Raghavachari, A. P. Rendell, J. C. Burant, S. S. Iyengar, 
 J. Tomasi, M. Cossi, J. M. Millam, M. Klene, C. Adamo, R. Cammi, 
 J. W. Ochterski, R. L. Martin, K. Morokuma, O. Farkas, 
 J. B. Foresman, and D. J. Fox, Gaussian, Inc., Wallingford CT, 2016.
 
 ******************************************
 Gaussian 16:  ES64L-G16RevA.03 25-Dec-2016
                31-Mar-2021 
 ******************************************
 %chk=PRLD-ACC-N1.chk
 %nproc=1
 Will use up to    1 processors via shared memory.
 %mem=1GB
 --------------------------------------------------------------
 # HF/6-31G* Opt=(Z-matrix,MaxCycles=100) Geom=PrintInputOrient
 --------------------------------------------------------------
 1/6=100,10=7,18=40,38=1/1,3;
 2/9=2000,12=2,17=6,18=5,29=3,40=1/2;
 3/5=1,6=6,7=1,11=9,25=1,30=1,71=1/1,2,3;
 4//1;
 5/5=2,38=5/2;
 6/7=2,8=2,9=2,10=2,28=1/1;
 7/29=1/1,2,3,16;
 1/6=100,10=7,18=40/3(2);
 2/9=2000,29=3/2;
 99//99;
 2/9=2000,29=3/2;
 3/5=1,6=6,7=1,11=9,25=1,30=1,71=1/1,2,3;
 4/5=5,16=3,69=1/1;
 5/5=2,38=5/2;
 7//1,2,3,16;
 1/6=100,18=40/3(-5);
 2/9=2000,29=3/2;
 6/7=2,8=2,9=2,10=2,19=2,28=1/1;
 99/9=1/99;
 --------------------------------------------------------------
 <qmtool> simtype="Geometry optimization" </qmtool> PRLD-ACC-N1
 --------------------------------------------------------------
 Symbolic Z-matrix:
 Charge =  0 Multiplicity = 1
 N1                    0.844     0.456     0.923 
 H2                    1.372     0.495     1.798 
 C3                    1.643     1.125    -0.113 
 H4                    2.        2.097     0.243 
 H5                    0.987     1.307    -0.971 
 C6                    2.779     0.153    -0.504 
 H7                    3.689     0.384     0.059 
 H8                    3.031     0.222    -1.566 
 C9                    2.231    -1.24     -0.112 
 H10                   2.866    -1.707     0.647 
 H11                   2.185    -1.928    -0.962 
 C12                   0.83     -0.941     0.469 
 H13                   0.542    -1.609     1.286 
 H14                   0.068    -1.027    -0.314 
 H1w                  N1   rAH      H2    112.65   C3   -124.88   0
 x                    H1w   1.       N1    90.      H2    0.       0
 Ow                   H1w   0.9572   x     90.      N1    180.     0
 H2w                  Ow    0.9572   H1w   104.52   x    dih      0
       Variables:
  rAH                   2.                       
  dih                   0.                       
 

 GradGradGradGradGradGradGradGradGradGradGradGradGradGradGradGradGradGrad
 Berny optimization.
 Initialization pass.
                       ----------------------------
                       !    Initial Parameters    !
                       ! (Angstroms and Degrees)  !
 ----------------------                            ----------------------
 !      Name          Value   Derivative information (Atomic Units)     !
 ------------------------------------------------------------------------
 !       rAH         2.0      estimate D2E/DX2                          !
 !       dih         0.0      estimate D2E/DX2                          !
 ------------------------------------------------------------------------
 Trust Radius=3.00D-01 FncErr=1.00D-07 GrdErr=1.00D-07 EigMax=2.50D+02 EigMin=1.00D-04
 Number of steps in this run=    100 maximum allowed number of steps=    100.
 GradGradGradGradGradGradGradGradGradGradGradGradGradGradGradGradGradGrad

 ---------------------------------------------------------------------------------------------------
                            Z-MATRIX (ANGSTROMS AND DEGREES)
   CD    Cent   Atom    N1       Length/X        N2       Alpha/Y        N3        Beta/Z          J
 ---------------------------------------------------------------------------------------------------
      1      1  N        0   0.844000          0.456000          0.923000
      2      2  H        0   1.372000          0.495000          1.798000
      3      3  C        0   1.643000          1.125000         -0.113000
      4      4  H        0   2.000000          2.097000          0.243000
      5      5  H        0   0.987000          1.307000         -0.971000
      6      6  C        0   2.779000          0.153000         -0.504000
      7      7  H        0   3.689000          0.384000          0.059000
      8      8  H        0   3.031000          0.222000         -1.566000
      9      9  C        0   2.231000         -1.240000         -0.112000
     10     10  H        0   2.866000         -1.707000          0.647000
     11     11  H        0   2.185000         -1.928000         -0.962000
     12     12  C        0   0.830000         -0.941000          0.469000
     13     13  H        0   0.542000         -1.609000          1.286000
     14     14  H        0   0.068000         -1.027000         -0.314000
     15     15  H        1   2.000000(    14)      2  112.650(    30)      3 -124.880(    45)      0
     16         X       15   1.000000(    15)      1   90.000(    31)      2    0.000(    46)      0
     17     16  O       15   0.957200(    16)     16   90.000(    32)      1  180.000(    47)      0
     18     17  H       17   0.957200(    17)     15  104.520(    33)     16    0.000(    48)      0
 ---------------------------------------------------------------------------------------------------
                         Z-Matrix orientation:                         
 ---------------------------------------------------------------------
 Center     Atomic      Atomic             Coordinates (Angstroms)
 Number     Number       Type             X           Y           Z
 ---------------------------------------------------------------------
      1          7           0        0.844000    0.456000    0.923000
      2          1           0        1.372000    0.495000    1.798000
      3          6           0        1.643000    1.125000   -0.113000
      4          1           0        2.000000    2.097000    0.243000
      5          1           0        0.987000    1.307000   -0.971000
      6          6           0        2.779000    0.153000   -0.504000
      7          1           0        3.689000    0.384000    0.059000
      8          1           0        3.031000    0.222000   -1.566000
      9          6           0        2.231000   -1.240000   -0.112000
     10          1           0        2.866000   -1.707000    0.647000
     11          1           0        2.185000   -1.928000   -0.962000
     12          6           0        0.830000   -0.941000    0.469000
     13          1           0        0.542000   -1.609000    1.286000
     14          1           0        0.068000   -1.027000   -0.314000
     15          1           0       -0.992978    1.227542    1.096879
     16         -1           0       -0.816827    1.429839    2.060230
     17          8           0       -1.872156    1.596801    1.180097
     18          1           0       -1.929355    1.876835    2.093629
 ---------------------------------------------------------------------
                    Distance matrix (angstroms):
                    1          2          3          4          5
     1  N    0.000000
     2  H    1.022707   0.000000
     3  C    1.469441   2.030335   0.000000
     4  H    2.119343   2.319227   1.094974   0.000000
     5  H    2.081318   2.911173   1.095274   1.767502   0.000000
     6  C    2.423296   2.719525   1.545368   2.223508   2.181987
     7  H    2.974173   2.899126   2.182838   2.412664   3.035397
     8  H    3.321573   3.760759   2.202989   2.801975   2.389390
     9  C    2.423099   2.719597   2.437000   3.363771   2.961862
    10  H    2.973757   2.899248   3.177035   3.922192   3.902917
    11  H    3.321891   3.761582   3.214868   4.205577   3.449712
    12  C    1.468986   2.030296   2.295223   3.263345   2.674276
    13  H    2.118301   2.319021   3.262539   4.116801   3.714180
    14  H    2.081258   2.911605   2.674347   3.715138   2.593023
    15  H    2.000000   2.573191   2.902189   3.231561   2.864044
    16  X    2.236068   2.394504   3.296453   3.417886   3.529481
    17  O    2.957200   3.481425   3.775052   4.015214   3.589704
    18  H    3.328760   3.591074   4.265699   4.348923   4.268699
                    6          7          8          9         10
     6  C    0.000000
     7  H    1.094728   0.000000
     8  H    1.093668   1.760634   0.000000
     9  C    1.547390   2.189151   2.211687   0.000000
    10  H    2.189057   2.322790   2.940346   1.094255   0.000000
    11  H    2.212049   2.941054   2.388102   1.094514   1.761103
    12  C    2.437656   3.177673   3.215306   1.545886   2.182598
    13  H    3.363467   3.921886   4.204948   2.223350   2.412240
    14  H    2.962773   3.904061   3.450634   2.182829   3.035577
    15  H    4.236186   4.869258   4.928939   4.236058   4.868844
    16  X    4.597343   5.039958   5.423485   4.597376   5.039860
    17  O    5.153057   5.801224   5.785505   5.152946   5.800812
    18  H    5.646937   6.159073   6.382514   5.646948   6.158899
                   11         12         13         14         15
    11  H    0.000000
    12  C    2.204077   0.000000
    13  H    2.802626   1.093918   0.000000
    14  H    2.390271   1.095960   1.767314   0.000000
    15  H    4.929094   2.901733   3.230773   2.863426   0.000000
    16  X    5.424013   3.296199   3.417657   3.529298   1.000000
    17  O    5.785613   3.774618   4.014540   3.588992   0.957200
    18  H    6.382911   4.265402   4.348667   4.268298   1.513901
                   16         17         18
    16  X    0.000000
    17  O    1.384280   0.000000
    18  H    1.199434   0.957200   0.000000
 Stoichiometry    C4H11NO
 Framework group  C1[X(C4H11NO)]
 Deg. of freedom    45
 Full point group                 C1      NOp   1
 Largest Abelian subgroup         C1      NOp   1
 Largest concise Abelian subgroup C1      NOp   1
                         Standard orientation:                         
 ---------------------------------------------------------------------
 Center     Atomic      Atomic             Coordinates (Angstroms)
 Number     Number       Type             X           Y           Z
 ---------------------------------------------------------------------
      1          7           0       -0.401486   -0.000100    0.480833
      2          1           0       -0.252815    0.000299    1.492676
      3          6           0        0.325308    1.147493   -0.079578
      4          1           0        0.101163    2.058770    0.484604
      5          1           0       -0.030824    1.296429   -1.104572
      6          6           0        1.824777    0.773671   -0.082546
      7          1           0        2.316036    1.161200    0.815739
      8          1           0        2.350981    1.194025   -0.944243
      9          6           0        1.824608   -0.773720   -0.082574
     10          1           0        2.315572   -1.161590    0.815149
     11          1           0        2.350881   -1.194077   -0.945300
     12          6           0        0.324652   -1.147730   -0.079157
     13          1           0        0.100616   -2.058030    0.484596
     14          1           0       -0.031860   -1.296593   -1.104764
     15          1           0       -2.339592    0.000077   -0.012871
     16          8           0       -3.267170    0.000162   -0.249158
     17          1           0       -3.728470    0.000609    0.589552
 ---------------------------------------------------------------------
 Rotational constants (GHZ):           6.5912311           1.6297224           1.4021998
 Standard basis: 6-31G(d) (6D, 7F)
 There are   112 symmetry adapted cartesian basis functions of A   symmetry.
 There are   112 symmetry adapted basis functions of A   symmetry.
   112 basis functions,   212 primitive gaussians,   112 cartesian basis functions
    25 alpha electrons       25 beta electrons
       nuclear repulsion energy       252.7292418926 Hartrees.
 NAtoms=   17 NActive=   17 NUniq=   17 SFac= 1.00D+00 NAtFMM=   60 NAOKFM=F Big=F
 Integral buffers will be    131072 words long.
 Raffenetti 1 integral format.
 Two-electron integral symmetry is turned on.
 One-electron integrals computed using PRISM.
 NBasis=   112 RedAO= T EigKep=  3.15D-03  NBF=   112
 NBsUse=   112 1.00D-06 EigRej= -1.00D+00 NBFU=   112
 ExpMin= 1.61D-01 ExpMax= 5.48D+03 ExpMxC= 8.25D+02 IAcc=3 IRadAn=         5 AccDes= 0.00D+00
 Harris functional with IExCor=  205 and IRadAn=       5 diagonalized for initial guess.
 HarFok:  IExCor=  205 AccDes= 0.00D+00 IRadAn=         5 IDoV= 1 UseB2=F ITyADJ=14
 ICtDFT=  3500011 ScaDFX=  1.000000  1.000000  1.000000  1.000000
 FoFCou: FMM=F IPFlag=           0 FMFlag=      100000 FMFlg1=           0
         NFxFlg=           0 DoJE=T BraDBF=F KetDBF=T FulRan=T
         wScrn=  0.000000 ICntrl=       500 IOpCl=  0 I1Cent=   200000004 NGrid=           0
         NMat0=    1 NMatS0=      1 NMatT0=    0 NMatD0=    1 NMtDS0=    0 NMtDT0=    0
 Petite list used in FoFCou.
 Keep R1 ints in memory in canonical form, NReq=20925029.
 Requested convergence on RMS density matrix=1.00D-08 within 128 cycles.
 Requested convergence on MAX density matrix=1.00D-06.
 Requested convergence on             energy=1.00D-06.
 No special actions if energy rises.
 SCF Done:  E(RHF) =  -287.163965799     A.U. after   12 cycles
            NFock= 12  Conv=0.61D-08     -V/T= 2.0017

 **********************************************************************

            Population analysis using the SCF density.

 **********************************************************************

 Orbital symmetries:
       Occupied  (A) (A) (A) (A) (A) (A) (A) (A) (A) (A) (A) (A)
                 (A) (A) (A) (A) (A) (A) (A) (A) (A) (A) (A) (A)
                 (A)
       Virtual   (A) (A) (A) (A) (A) (A) (A) (A) (A) (A) (A) (A)
                 (A) (A) (A) (A) (A) (A) (A) (A) (A) (A) (A) (A)
                 (A) (A) (A) (A) (A) (A) (A) (A) (A) (A) (A) (A)
                 (A) (A) (A) (A) (A) (A) (A) (A) (A) (A) (A) (A)
                 (A) (A) (A) (A) (A) (A) (A) (A) (A) (A) (A) (A)
                 (A) (A) (A) (A) (A) (A) (A) (A) (A) (A) (A) (A)
                 (A) (A) (A) (A) (A) (A) (A) (A) (A) (A) (A) (A)
                 (A) (A) (A)
 The electronic state is 1-A.
 Alpha  occ. eigenvalues --  -20.51068 -15.56500 -11.25509 -11.25504 -11.22892
 Alpha  occ. eigenvalues --  -11.22837  -1.29767  -1.23602  -1.03266  -0.98183
 Alpha  occ. eigenvalues --   -0.82876  -0.79530  -0.69017  -0.67404  -0.64404
 Alpha  occ. eigenvalues --   -0.60316  -0.59672  -0.53227  -0.52278  -0.50604
 Alpha  occ. eigenvalues --   -0.49053  -0.48721  -0.46789  -0.45395  -0.39533
 Alpha virt. eigenvalues --    0.19883   0.23474   0.26037   0.28188   0.28260
 Alpha virt. eigenvalues --    0.29160   0.31639   0.32837   0.33146   0.35104
 Alpha virt. eigenvalues --    0.36425   0.39693   0.39977   0.44971   0.47284
 Alpha virt. eigenvalues --    0.51030   0.71704   0.75300   0.75313   0.78432
 Alpha virt. eigenvalues --    0.78825   0.82309   0.90377   0.90880   0.92876
 Alpha virt. eigenvalues --    0.93783   1.01114   1.01593   1.08250   1.09607
 Alpha virt. eigenvalues --    1.11204   1.11696   1.13700   1.14362   1.15980
 Alpha virt. eigenvalues --    1.17019   1.19205   1.20001   1.20498   1.21161
 Alpha virt. eigenvalues --    1.21557   1.22985   1.23262   1.33890   1.44484
 Alpha virt. eigenvalues --    1.47933   1.50486   1.57728   1.58182   1.65687
 Alpha virt. eigenvalues --    1.89056   1.89641   2.00368   2.06141   2.07409
 Alpha virt. eigenvalues --    2.07847   2.10720   2.10934   2.12555   2.18427
 Alpha virt. eigenvalues --    2.21523   2.28975   2.31106   2.33558   2.41263
 Alpha virt. eigenvalues --    2.41887   2.42121   2.49624   2.55870   2.57864
 Alpha virt. eigenvalues --    2.70363   2.71666   2.73612   2.81032   2.88924
 Alpha virt. eigenvalues --    2.94467   2.97617   2.98027   3.01492   3.03325
 Alpha virt. eigenvalues --    3.22375   4.15394   4.45226   4.60313   4.66787
 Alpha virt. eigenvalues --    4.87331   5.03282
          Condensed to atoms (all electrons):
               1          2          3          4          5          6
     1  N    7.146278   0.323234   0.269974  -0.033718  -0.046645  -0.080145
     2  H    0.323234   0.420138  -0.039523  -0.005116   0.005360  -0.000877
     3  C    0.269974  -0.039523   4.993348   0.404285   0.407848   0.334149
     4  H   -0.033718  -0.005116   0.404285   0.510939  -0.024727  -0.034919
     5  H   -0.046645   0.005360   0.407848  -0.024727   0.523884  -0.050927
     6  C   -0.080145  -0.000877   0.334149  -0.034919  -0.050927   5.196295
     7  H    0.002409   0.000965  -0.038643  -0.004038   0.003646   0.397054
     8  H    0.004109  -0.000028  -0.032831   0.001232  -0.002520   0.394620
     9  C   -0.080234  -0.000883  -0.060156   0.003835  -0.000288   0.316499
    10  H    0.002420   0.000964   0.003238  -0.000162  -0.000011  -0.038313
    11  H    0.004107  -0.000028   0.002865  -0.000061   0.000133  -0.032745
    12  C    0.269755  -0.039501  -0.092366   0.005835  -0.001428  -0.060054
    13  H   -0.033729  -0.005121   0.005840  -0.000109  -0.000166   0.003824
    14  H   -0.046709   0.005363  -0.001445  -0.000165   0.003251  -0.000279
    15  H    0.026659  -0.000599  -0.001483  -0.000047  -0.000895   0.000219
    16  O   -0.017221   0.000415   0.000405   0.000003   0.000437  -0.000007
    17  H    0.001566  -0.000069  -0.000000   0.000005  -0.000020   0.000001
               7          8          9         10         11         12
     1  N    0.002409   0.004109  -0.080234   0.002420   0.004107   0.269755
     2  H    0.000965  -0.000028  -0.000883   0.000964  -0.000028  -0.039501
     3  C   -0.038643  -0.032831  -0.060156   0.003238   0.002865  -0.092366
     4  H   -0.004038   0.001232   0.003835  -0.000162  -0.000061   0.005835
     5  H    0.003646  -0.002520  -0.000288  -0.000011   0.000133  -0.001428
     6  C    0.397054   0.394620   0.316499  -0.038313  -0.032745  -0.060054
     7  H    0.537237  -0.025180  -0.038352  -0.006152   0.002498   0.003233
     8  H   -0.025180   0.516026  -0.032686   0.002494  -0.003727   0.002856
     9  C   -0.038352  -0.032686   5.196529   0.397027   0.394529   0.334286
    10  H   -0.006152   0.002494   0.397027   0.537065  -0.025147  -0.038670
    11  H    0.002498  -0.003727   0.394529  -0.025147   0.516320  -0.032803
    12  C    0.003233   0.002856   0.334286  -0.038670  -0.032803   4.993156
    13  H   -0.000162  -0.000061  -0.034868  -0.004023   0.001229   0.404368
    14  H   -0.000011   0.000132  -0.050917   0.003644  -0.002517   0.407832
    15  H   -0.000005  -0.000004   0.000220  -0.000005  -0.000004  -0.001488
    16  O    0.000000   0.000000  -0.000007   0.000000   0.000000   0.000407
    17  H   -0.000000  -0.000000   0.000001  -0.000000  -0.000000  -0.000000
              13         14         15         16         17
     1  N   -0.033729  -0.046709   0.026659  -0.017221   0.001566
     2  H   -0.005121   0.005363  -0.000599   0.000415  -0.000069
     3  C    0.005840  -0.001445  -0.001483   0.000405  -0.000000
     4  H   -0.000109  -0.000165  -0.000047   0.000003   0.000005
     5  H   -0.000166   0.003251  -0.000895   0.000437  -0.000020
     6  C    0.003824  -0.000279   0.000219  -0.000007   0.000001
     7  H   -0.000162  -0.000011  -0.000005   0.000000  -0.000000
     8  H   -0.000061   0.000132  -0.000004   0.000000  -0.000000
     9  C   -0.034868  -0.050917   0.000220  -0.000007   0.000001
    10  H   -0.004023   0.003644  -0.000005   0.000000  -0.000000
    11  H    0.001229  -0.002517  -0.000004   0.000000  -0.000000
    12  C    0.404368   0.407832  -0.001488   0.000407  -0.000000
    13  H    0.510595  -0.024727  -0.000047   0.000003   0.000005
    14  H   -0.024727   0.524154  -0.000898   0.000438  -0.000020
    15  H   -0.000047  -0.000898   0.240415   0.252834  -0.017254
    16  O    0.000003   0.000438   0.252834   8.437634   0.263816
    17  H    0.000005  -0.000020  -0.017254   0.263816   0.340599
 Mulliken charges:
               1
     1  N   -0.712112
     2  H    0.335305
     3  C   -0.155507
     4  H    0.176928
     5  H    0.183067
     6  C   -0.344394
     7  H    0.165500
     8  H    0.175568
     9  C   -0.344535
    10  H    0.165631
    11  H    0.175350
    12  C   -0.155419
    13  H    0.177149
    14  H    0.182874
    15  H    0.502382
    16  O   -0.939158
    17  H    0.411372
 Sum of Mulliken charges =  -0.00000
 Mulliken charges with hydrogens summed into heavy atoms:
               1
     1  N   -0.376807
     3  C    0.204488
     6  C   -0.003326
     9  C   -0.003554
    12  C    0.204604
    16  O   -0.025405
 Electronic spatial extent (au):  <R**2>=            877.2216
 Charge=             -0.0000 electrons
 Dipole moment (field-independent basis, Debye):
    X=              3.3097    Y=              0.0007    Z=              2.3559  Tot=              4.0626
 Quadrupole moment (field-independent basis, Debye-Ang):
   XX=            -47.8430   YY=            -38.1612   ZZ=            -36.0693
   XY=              0.0004   XZ=             -7.2153   YZ=             -0.0024
 Traceless Quadrupole moment (field-independent basis, Debye-Ang):
   XX=             -7.1518   YY=              2.5299   ZZ=              4.6219
   XY=              0.0004   XZ=             -7.2153   YZ=             -0.0024
 Octapole moment (field-independent basis, Debye-Ang**2):
  XXX=              5.2670  YYY=             -0.0022  ZZZ=              4.5996  XYY=             -3.2393
  XXY=              0.0160  XXZ=             26.1057  XZZ=             -5.2667  YZZ=              0.0016
  YYZ=              1.4280  XYZ=             -0.0076
 Hexadecapole moment (field-independent basis, Debye-Ang**3):
 XXXX=           -828.6092 YYYY=           -228.7992 ZZZZ=            -74.2247 XXXY=             -0.0297
 XXXZ=            -99.1519 YYYX=              0.0070 YYYZ=             -0.0161 ZZZX=             -4.2802
 ZZZY=             -0.0080 XXYY=           -176.4335 XXZZ=           -135.5868 YYZZ=            -50.0605
 XXYZ=              0.0040 YYXZ=             -1.5911 ZZXY=             -0.0009
 N-N= 2.527292418926D+02 E-N=-1.177912674546D+03  KE= 2.866852203642D+02
 Calling FoFJK, ICntrl=      2127 FMM=F ISym2X=0 I1Cent= 0 IOpClX= 0 NMat=1 NMatS=1 NMatT=0.
 ***** Axes restored to original set *****
 -------------------------------------------------------------------
 Center     Atomic                   Forces (Hartrees/Bohr)
 Number     Number              X              Y              Z
 -------------------------------------------------------------------
      1        7           0.017827864   -0.004966325    0.006286703
      2        1          -0.009186446    0.000039767   -0.012565832
      3        6          -0.002511644    0.009632662   -0.002176783
      4        1          -0.002808899   -0.007490091   -0.003016848
      5        1           0.004256159   -0.000518825    0.006166598
      6        6           0.004975480    0.002710728   -0.000802293
      7        1          -0.005301118   -0.001521969   -0.003843322
      8        1          -0.001895054    0.000104978    0.006809843
      9        6           0.001445549   -0.005521767    0.000834517
     10        1          -0.003470002    0.002442280   -0.004826169
     11        1          -0.000247115    0.004556750    0.006111467
     12        6          -0.008300365   -0.005133420    0.000976025
     13        1           0.001976375    0.004618837   -0.006042823
     14        1           0.004935137    0.000414503    0.006219759
     15        1          -0.000944046    0.000105816   -0.000952630
     16        8          -0.000317182    0.003508168    0.012007699
     17        1          -0.000434692   -0.002982094   -0.011185909
 -------------------------------------------------------------------
 Cartesian Forces:  Max     0.017827864 RMS     0.005657010
 -----------------------------------------------------------------------------------------------
                       Internal Coordinate Forces (Hartree/Bohr or radian)
  Cent   Atom   N1       Length/X         N2         Alpha/Y        N3         Beta/Z          J
 -----------------------------------------------------------------------------------------------
      1  N            0.016904(     1)     -0.004762(    19)      0.005709(    37)
      2  H           -0.009959(     2)      0.000469(    20)     -0.012119(    38)
      3  C           -0.002511(     3)      0.009631(    21)     -0.002177(    39)
      4  H           -0.002809(     4)     -0.007490(    22)     -0.003017(    40)
      5  H            0.004256(     5)     -0.000519(    23)      0.006167(    41)
      6  C            0.004975(     6)      0.002711(    24)     -0.000802(    42)
      7  H           -0.005301(     7)     -0.001522(    25)     -0.003843(    43)
      8  H           -0.001895(     8)      0.000105(    26)      0.006810(    44)
      9  C            0.001446(     9)     -0.005522(    27)      0.000835(    45)
     10  H           -0.003470(    10)      0.002442(    28)     -0.004826(    46)
     11  H           -0.000247(    11)      0.004557(    29)      0.006111(    47)
     12  C           -0.008300(    12)     -0.005133(    30)      0.000976(    48)
     13  H            0.001976(    13)      0.004619(    31)     -0.006043(    49)
     14  H            0.004935(    14)      0.000415(    32)      0.006220(    50)
     15  H        1   0.001790(    15)      2   0.001914(    33)      3   0.000004(    51)     0
         X       15  -0.000000(    16)      1   0.000792(    34)      2   0.000001(    52)     0
     16  O       15   0.000965(    17)     16   0.000792(    35)      1  -0.000002(    53)     0
     17  H       17  -0.011522(    18)     15   0.002177(    36)     16   0.000001(    54)     0
 -----------------------------------------------------------------------------------------------
 Internal  Forces:  Max     0.016903698 RMS     0.005180033

 GradGradGradGradGradGradGradGradGradGradGradGradGradGradGradGradGradGrad
 Berny optimization.
 Search for a local minimum.
 Step number   1 out of a maximum of  100
 All quantities printed in internal units (Hartrees-Bohrs-Radians)
 Second derivative matrix not updated -- first step.
 The second derivative matrix:
                          rAH       dih
           rAH          0.04307
           dih          0.00015   3.06625
 ITU=  0
     Eigenvalues ---    0.04307   3.06625
 RFO step:  Lambda=-7.42774996D-05 EMin= 4.30660314D-02
 Linear search not attempted -- first point.
 Variable       Old X    -DE/DX   Delta X   Delta X   Delta X     New X
                                 (Linear)    (Quad)   (Total)
   rAH        3.77945   0.00179   0.00000   0.04149   0.04149   3.82095
   dih        0.00000   0.00000   0.00000  -0.00000  -0.00000  -0.00000
         Item               Value     Threshold  Converged?
 Maximum Force            0.001790     0.000450     NO 
 RMS     Force            0.001266     0.000300     NO 
 Maximum Displacement     0.041494     0.001800     NO 
 RMS     Displacement     0.029341     0.001200     NO 
 Predicted change in Energy=-3.720280D-05
 GradGradGradGradGradGradGradGradGradGradGradGradGradGradGradGradGradGrad

 ---------------------------------------------------------------------------------------------------
                            Z-MATRIX (ANGSTROMS AND DEGREES)
   CD    Cent   Atom    N1       Length/X        N2       Alpha/Y        N3        Beta/Z          J
 ---------------------------------------------------------------------------------------------------
      1      1  N        0   0.844000          0.456000          0.923000
      2      2  H        0   1.372000          0.495000          1.798000
      3      3  C        0   1.643000          1.125000         -0.113000
      4      4  H        0   2.000000          2.097000          0.243000
      5      5  H        0   0.987000          1.307000         -0.971000
      6      6  C        0   2.779000          0.153000         -0.504000
      7      7  H        0   3.689000          0.384000          0.059000
      8      8  H        0   3.031000          0.222000         -1.566000
      9      9  C        0   2.231000         -1.240000         -0.112000
     10     10  H        0   2.866000         -1.707000          0.647000
     11     11  H        0   2.185000         -1.928000         -0.962000
     12     12  C        0   0.830000         -0.941000          0.469000
     13     13  H        0   0.542000         -1.609000          1.286000
     14     14  H        0   0.068000         -1.027000         -0.314000
     15     15  H        1   2.021958(    14)      2  112.650(    30)      3 -124.880(    45)      0
     16         X       15   1.000000(    15)      1   90.000(    31)      2    0.000(    46)      0
     17     16  O       15   0.957200(    16)     16   90.000(    32)      1  180.000(    47)      0
     18     17  H       17   0.957200(    17)     15  104.520(    33)     16   -0.000(    48)      0
 ---------------------------------------------------------------------------------------------------
                         Z-Matrix orientation:                         
 ---------------------------------------------------------------------
 Center     Atomic      Atomic             Coordinates (Angstroms)
 Number     Number       Type             X           Y           Z
 ---------------------------------------------------------------------
      1          7           0        0.844000    0.456000    0.923000
      2          1           0        1.372000    0.495000    1.798000
      3          6           0        1.643000    1.125000   -0.113000
      4          1           0        2.000000    2.097000    0.243000
      5          1           0        0.987000    1.307000   -0.971000
      6          6           0        2.779000    0.153000   -0.504000
      7          1           0        3.689000    0.384000    0.059000
      8          1           0        3.031000    0.222000   -1.566000
      9          6           0        2.231000   -1.240000   -0.112000
     10          1           0        2.866000   -1.707000    0.647000
     11          1           0        2.185000   -1.928000   -0.962000
     12          6           0        0.830000   -0.941000    0.469000
     13          1           0        0.542000   -1.609000    1.286000
     14          1           0        0.068000   -1.027000   -0.314000
     15          1           0       -1.013146    1.236012    1.098788
     16         -1           0       -0.836995    1.438309    2.062139
     17          8           0       -1.892324    1.605272    1.182006
     18          1           0       -1.949524    1.885304    2.095538
 ---------------------------------------------------------------------
                    Distance matrix (angstroms):
                    1          2          3          4          5
     1  N    0.000000
     2  H    1.022707   0.000000
     3  C    1.469441   2.030335   0.000000
     4  H    2.119343   2.319227   1.094974   0.000000
     5  H    2.081318   2.911173   1.095274   1.767502   0.000000
     6  C    2.423296   2.719525   1.545368   2.223508   2.181987
     7  H    2.974173   2.899126   2.182838   2.412664   3.035397
     8  H    3.321573   3.760759   2.202989   2.801975   2.389390
     9  C    2.423099   2.719597   2.437000   3.363771   2.961862
    10  H    2.973757   2.899248   3.177035   3.922192   3.902917
    11  H    3.321891   3.761582   3.214868   4.205577   3.449712
    12  C    1.468986   2.030296   2.295223   3.263345   2.674276
    13  H    2.118301   2.319021   3.262539   4.116801   3.714180
    14  H    2.081258   2.911605   2.674347   3.715138   2.593023
    15  H    2.021958   2.593631   2.921621   3.248496   2.879174
    16  X    2.255729   2.416456   3.313573   3.433902   3.541770
    17  O    2.979158   3.502566   3.795553   4.034070   3.607618
    18  H    3.349856   3.613031   4.285083   4.367545   4.285005
                    6          7          8          9         10
     6  C    0.000000
     7  H    1.094728   0.000000
     8  H    1.093668   1.760634   0.000000
     9  C    1.547390   2.189151   2.211687   0.000000
    10  H    2.189057   2.322790   2.940346   1.094255   0.000000
    11  H    2.212049   2.941054   2.388102   1.094514   1.761103
    12  C    2.437656   3.177673   3.215306   1.545886   2.182598
    13  H    3.363467   3.921886   4.204948   2.223350   2.412240
    14  H    2.962773   3.904061   3.450634   2.182829   3.035577
    15  H    4.257020   4.890528   4.948175   4.256892   4.890113
    16  X    4.616547   5.060510   5.440973   4.616580   5.060411
    17  O    5.174261   5.822699   5.805523   5.174150   5.822287
    18  H    5.667223   6.180158   6.401489   5.667233   6.179982
                   11         12         13         14         15
    11  H    0.000000
    12  C    2.204077   0.000000
    13  H    2.802626   1.093918   0.000000
    14  H    2.390271   1.095960   1.767314   0.000000
    15  H    4.948329   2.921165   3.247710   2.878554   0.000000
    16  X    5.441499   3.313318   3.433673   3.541582   1.000000
    17  O    5.805630   3.795119   4.033397   3.606905   0.957200
    18  H    6.401884   4.284784   4.367288   4.284600   1.513901
                   16         17         18
    16  X    0.000000
    17  O    1.384280   0.000000
    18  H    1.199434   0.957200   0.000000
 Stoichiometry    C4H11NO
 Framework group  C1[X(C4H11NO)]
 Deg. of freedom    45
 Full point group                 C1      NOp   1
 Largest Abelian subgroup         C1      NOp   1
 Largest concise Abelian subgroup C1      NOp   1
                         Standard orientation:                         
 ---------------------------------------------------------------------
 Center     Atomic      Atomic             Coordinates (Angstroms)
 Number     Number       Type             X           Y           Z
 ---------------------------------------------------------------------
      1          7           0       -0.396608   -0.000101    0.482429
      2          1           0       -0.246633    0.000298    1.494079
      3          6           0        0.329461    1.147493   -0.078918
      4          1           0        0.106044    2.058770    0.485553
      5          1           0       -0.027992    1.296430   -1.103452
      6          6           0        1.828926    0.773672   -0.083820
      7          1           0        2.321342    1.161201    0.813831
      8          1           0        2.354017    1.194027   -0.946194
      9          6           0        1.828758   -0.773719   -0.083848
     10          1           0        2.320879   -1.161589    0.813241
     11          1           0        2.353918   -1.194075   -0.947253
     12          6           0        0.328808   -1.147730   -0.078498
     13          1           0        0.105499   -2.058031    0.485543
     14          1           0       -0.029026   -1.296593   -1.103644
     15          1           0       -2.356635    0.000077   -0.014169
     16          8           0       -3.284517    0.000161   -0.249259
     17          1           0       -3.744735    0.000606    0.590045
 ---------------------------------------------------------------------
 Rotational constants (GHZ):           6.5888432           1.6166888           1.3926472
 Standard basis: 6-31G(d) (6D, 7F)
 There are   112 symmetry adapted cartesian basis functions of A   symmetry.
 There are   112 symmetry adapted basis functions of A   symmetry.
   112 basis functions,   212 primitive gaussians,   112 cartesian basis functions
    25 alpha electrons       25 beta electrons
       nuclear repulsion energy       252.4321719432 Hartrees.
 NAtoms=   17 NActive=   17 NUniq=   17 SFac= 1.00D+00 NAtFMM=   60 NAOKFM=F Big=F
 Integral buffers will be    131072 words long.
 Raffenetti 1 integral format.
 Two-electron integral symmetry is turned on.
 One-electron integrals computed using PRISM.
 NBasis=   112 RedAO= T EigKep=  3.15D-03  NBF=   112
 NBsUse=   112 1.00D-06 EigRej= -1.00D+00 NBFU=   112
 Initial guess from the checkpoint file:  "PRLD-ACC-N1.chk"
 B after Tr=     0.000000    0.000000    0.000000
         Rot=    1.000000   -0.000000   -0.000245   -0.000000 Ang=  -0.03 deg.
 ExpMin= 1.61D-01 ExpMax= 5.48D+03 ExpMxC= 8.25D+02 IAcc=2 IRadAn=         4 AccDes= 0.00D+00
 Harris functional with IExCor=  205 and IRadAn=       4 diagonalized for initial guess.
 HarFok:  IExCor=  205 AccDes= 0.00D+00 IRadAn=         4 IDoV= 1 UseB2=F ITyADJ=14
 ICtDFT=  3500011 ScaDFX=  1.000000  1.000000  1.000000  1.000000
 FoFCou: FMM=F IPFlag=           0 FMFlag=      100000 FMFlg1=           0
         NFxFlg=           0 DoJE=T BraDBF=F KetDBF=T FulRan=T
         wScrn=  0.000000 ICntrl=       500 IOpCl=  0 I1Cent=   200000004 NGrid=           0
         NMat0=    1 NMatS0=      1 NMatT0=    0 NMatD0=    1 NMtDS0=    0 NMtDT0=    0
 Petite list used in FoFCou.
 Keep R1 ints in memory in canonical form, NReq=20924971.
 Requested convergence on RMS density matrix=1.00D-08 within 128 cycles.
 Requested convergence on MAX density matrix=1.00D-06.
 Requested convergence on             energy=1.00D-06.
 No special actions if energy rises.
 SCF Done:  E(RHF) =  -287.164027503     A.U. after    8 cycles
            NFock=  8  Conv=0.50D-08     -V/T= 2.0017
 Calling FoFJK, ICntrl=      2127 FMM=F ISym2X=0 I1Cent= 0 IOpClX= 0 NMat=1 NMatS=1 NMatT=0.
 ***** Axes restored to original set *****
 -------------------------------------------------------------------
 Center     Atomic                   Forces (Hartrees/Bohr)
 Number     Number              X              Y              Z
 -------------------------------------------------------------------
      1        7           0.017264334   -0.004729778    0.006339426
      2        1          -0.009190438    0.000037568   -0.012579197
      3        6          -0.002561140    0.009579102   -0.002113853
      4        1          -0.002801150   -0.007483859   -0.003017710
      5        1           0.004269073   -0.000518402    0.006148467
      6        6           0.004985323    0.002711321   -0.000819623
      7        1          -0.005298324   -0.001521955   -0.003842491
      8        1          -0.001887967    0.000099993    0.006805245
      9        6           0.001449455   -0.005536295    0.000821469
     10        1          -0.003467766    0.002440868   -0.004824939
     11        1          -0.000239460    0.004553221    0.006106442
     12        6          -0.008292035   -0.005039880    0.000997589
     13        1           0.001978062    0.004609653   -0.006039358
     14        1           0.004941274    0.000397724    0.006206435
     15        1          -0.001004733    0.000126302   -0.000964289
     16        8           0.000251617    0.003267493    0.011947505
     17        1          -0.000396124   -0.002993075   -0.011171119
 -------------------------------------------------------------------
 Cartesian Forces:  Max     0.017264334 RMS     0.005610349
 -----------------------------------------------------------------------------------------------
                       Internal Coordinate Forces (Hartree/Bohr or radian)
  Cent   Atom   N1       Length/X         N2         Alpha/Y        N3         Beta/Z          J
 -----------------------------------------------------------------------------------------------
      1  N            0.016861(     1)     -0.004742(    19)      0.005720(    37)
      2  H           -0.009937(     2)      0.000452(    20)     -0.012147(    38)
      3  C           -0.002561(     3)      0.009578(    21)     -0.002114(    39)
      4  H           -0.002801(     4)     -0.007484(    22)     -0.003018(    40)
      5  H            0.004269(     5)     -0.000518(    23)      0.006148(    41)
      6  C            0.004985(     6)      0.002711(    24)     -0.000820(    42)
      7  H           -0.005298(     7)     -0.001522(    25)     -0.003842(    43)
      8  H           -0.001888(     8)      0.000100(    26)      0.006805(    44)
      9  C            0.001449(     9)     -0.005536(    27)      0.000821(    45)
     10  H           -0.003468(    10)      0.002441(    28)     -0.004825(    46)
     11  H           -0.000239(    11)      0.004553(    29)      0.006106(    47)
     12  C           -0.008292(    12)     -0.005040(    30)      0.000998(    48)
     13  H            0.001978(    13)      0.004610(    31)     -0.006039(    49)
     14  H            0.004941(    14)      0.000398(    32)      0.006206(    50)
     15  H        1   0.001194(    15)      2   0.001850(    33)      3   0.000004(    51)     0
         X       15  -0.000000(    16)      1   0.000694(    34)      2   0.000001(    52)     0
     16  O       15   0.000306(    17)     16   0.000694(    35)      1  -0.000002(    53)     0
     17  H       17  -0.011513(    18)     15   0.002101(    36)     16   0.000001(    54)     0
 -----------------------------------------------------------------------------------------------
 Internal  Forces:  Max     0.016860654 RMS     0.005166582

 GradGradGradGradGradGradGradGradGradGradGradGradGradGradGradGradGradGrad
 Berny optimization.
 Search for a local minimum.
 Step number   2 out of a maximum of  100
 All quantities printed in internal units (Hartrees-Bohrs-Radians)
 Update second derivatives using D2CorN and points    1    2
 DE= -6.17D-05 DEPred=-3.72D-05 R= 1.66D+00
 TightC=F SS=  1.41D+00  RLast= 4.15D-02 DXNew= 5.0454D-01 1.2448D-01
 Trust test= 1.66D+00 RLast= 4.15D-02 DXMaxT set to 3.00D-01
 The second derivative matrix:
                          rAH       dih
           rAH          0.01437
           dih          0.00015   3.06625
 ITU=  1  0
     Eigenvalues ---    0.01437   3.06625
 RFO step:  Lambda= 0.00000000D+00 EMin= 1.43696864D-02
 Quartic linear search produced a step of  2.00000.
 Variable       Old X    -DE/DX   Delta X   Delta X   Delta X     New X
                                 (Linear)    (Quad)   (Total)
   rAH        3.82095   0.00119   0.08299  -0.00000   0.08299   3.90393
   dih       -0.00000   0.00000  -0.00000   0.00000  -0.00000  -0.00001
         Item               Value     Threshold  Converged?
 Maximum Force            0.001194     0.000450     NO 
 RMS     Force            0.000844     0.000300     NO 
 Maximum Displacement     0.082988     0.001800     NO 
 RMS     Displacement     0.058682     0.001200     NO 
 Predicted change in Energy=-4.959022D-05
 GradGradGradGradGradGradGradGradGradGradGradGradGradGradGradGradGradGrad

 ---------------------------------------------------------------------------------------------------
                            Z-MATRIX (ANGSTROMS AND DEGREES)
   CD    Cent   Atom    N1       Length/X        N2       Alpha/Y        N3        Beta/Z          J
 ---------------------------------------------------------------------------------------------------
      1      1  N        0   0.844000          0.456000          0.923000
      2      2  H        0   1.372000          0.495000          1.798000
      3      3  C        0   1.643000          1.125000         -0.113000
      4      4  H        0   2.000000          2.097000          0.243000
      5      5  H        0   0.987000          1.307000         -0.971000
      6      6  C        0   2.779000          0.153000         -0.504000
      7      7  H        0   3.689000          0.384000          0.059000
      8      8  H        0   3.031000          0.222000         -1.566000
      9      9  C        0   2.231000         -1.240000         -0.112000
     10     10  H        0   2.866000         -1.707000          0.647000
     11     11  H        0   2.185000         -1.928000         -0.962000
     12     12  C        0   0.830000         -0.941000          0.469000
     13     13  H        0   0.542000         -1.609000          1.286000
     14     14  H        0   0.068000         -1.027000         -0.314000
     15     15  H        1   2.065873(    14)      2  112.650(    30)      3 -124.880(    45)      0
     16         X       15   1.000000(    15)      1   90.000(    31)      2    0.000(    46)      0
     17     16  O       15   0.957200(    16)     16   90.000(    32)      1  180.000(    47)      0
     18     17  H       17   0.957200(    17)     15  104.520(    33)     16   -0.000(    48)      0
 ---------------------------------------------------------------------------------------------------
                         Z-Matrix orientation:                         
 ---------------------------------------------------------------------
 Center     Atomic      Atomic             Coordinates (Angstroms)
 Number     Number       Type             X           Y           Z
 ---------------------------------------------------------------------
      1          7           0        0.844000    0.456000    0.923000
      2          1           0        1.372000    0.495000    1.798000
      3          6           0        1.643000    1.125000   -0.113000
      4          1           0        2.000000    2.097000    0.243000
      5          1           0        0.987000    1.307000   -0.971000
      6          6           0        2.779000    0.153000   -0.504000
      7          1           0        3.689000    0.384000    0.059000
      8          1           0        3.031000    0.222000   -1.566000
      9          6           0        2.231000   -1.240000   -0.112000
     10          1           0        2.866000   -1.707000    0.647000
     11          1           0        2.185000   -1.928000   -0.962000
     12          6           0        0.830000   -0.941000    0.469000
     13          1           0        0.542000   -1.609000    1.286000
     14          1           0        0.068000   -1.027000   -0.314000
     15          1           0       -1.053482    1.252954    1.102606
     16         -1           0       -0.877331    1.455251    2.065957
     17          8           0       -1.932660    1.622213    1.185824
     18          1           0       -1.989861    1.902243    2.099357
 ---------------------------------------------------------------------
                    Distance matrix (angstroms):
                    1          2          3          4          5
     1  N    0.000000
     2  H    1.022707   0.000000
     3  C    1.469441   2.030335   0.000000
     4  H    2.119343   2.319227   1.094974   0.000000
     5  H    2.081318   2.911173   1.095274   1.767502   0.000000
     6  C    2.423296   2.719525   1.545368   2.223508   2.181987
     7  H    2.974173   2.899126   2.182838   2.412664   3.035397
     8  H    3.321573   3.760759   2.202989   2.801975   2.389390
     9  C    2.423099   2.719597   2.437000   3.363771   2.961862
    10  H    2.973757   2.899248   3.177035   3.922192   3.902917
    11  H    3.321891   3.761582   3.214868   4.205577   3.449712
    12  C    1.468986   2.030296   2.295223   3.263345   2.674276
    13  H    2.118301   2.319021   3.262539   4.116801   3.714180
    14  H    2.081258   2.911605   2.674347   3.715138   2.593023
    15  H    2.065873   2.634584   2.960589   3.282543   2.909696
    16  X    2.295176   2.460360   3.347983   3.466129   3.566625
    17  O    3.023073   3.544877   3.836602   4.071874   3.643579
    18  H    3.392079   3.656946   4.323923   4.404882   4.317767
                    6          7          8          9         10
     6  C    0.000000
     7  H    1.094728   0.000000
     8  H    1.093668   1.760634   0.000000
     9  C    1.547390   2.189151   2.211687   0.000000
    10  H    2.189057   2.322790   2.940346   1.094255   0.000000
    11  H    2.212049   2.941054   2.388102   1.094514   1.761103
    12  C    2.437656   3.177673   3.215306   1.545886   2.182598
    13  H    3.363467   3.921886   4.204948   2.223350   2.412240
    14  H    2.962773   3.904061   3.450634   2.182829   3.035577
    15  H    4.298721   4.933085   4.986714   4.298594   4.932671
    16  X    4.655029   5.101650   5.476045   4.655061   5.101548
    17  O    5.216688   5.865660   5.845601   5.216577   5.865248
    18  H    5.707833   6.222345   6.439496   5.707842   6.222167
                   11         12         13         14         15
    11  H    0.000000
    12  C    2.204077   0.000000
    13  H    2.802626   1.093918   0.000000
    14  H    2.390271   1.095960   1.767314   0.000000
    15  H    4.986866   2.960134   3.281764   2.909069   0.000000
    16  X    5.476566   3.347726   3.465900   3.566429   1.000000
    17  O    5.845707   3.836169   4.071206   3.642862   0.957200
    18  H    6.439886   4.323622   4.404622   4.317354   1.513901
                   16         17         18
    16  X    0.000000
    17  O    1.384280   0.000000
    18  H    1.199434   0.957200   0.000000
 Stoichiometry    C4H11NO
 Framework group  C1[X(C4H11NO)]
 Deg. of freedom    45
 Full point group                 C1      NOp   1
 Largest Abelian subgroup         C1      NOp   1
 Largest concise Abelian subgroup C1      NOp   1
                         Standard orientation:                         
 ---------------------------------------------------------------------
 Center     Atomic      Atomic             Coordinates (Angstroms)
 Number     Number       Type             X           Y           Z
 ---------------------------------------------------------------------
      1          7           0       -0.386859   -0.000102    0.485573
      2          1           0       -0.234306    0.000296    1.496838
      3          6           0        0.337777    1.147493   -0.077621
      4          1           0        0.115797    2.058769    0.487419
      5          1           0       -0.022286    1.296430   -1.101240
      6          6           0        1.837225    0.773674   -0.086343
      7          1           0        2.331926    1.161203    0.810051
      8          1           0        2.360117    1.194031   -0.950052
      9          6           0        1.837059   -0.773717   -0.086372
     10          1           0        2.331464   -1.161587    0.809459
     11          1           0        2.360019   -1.194071   -0.951112
     12          6           0        0.337128   -1.147730   -0.077201
     13          1           0        0.115258   -2.058032    0.487407
     14          1           0       -0.023316   -1.296592   -1.101432
     15          1           0       -2.390742    0.000077   -0.016707
     16          8           0       -3.319219    0.000160   -0.249432
     17          1           0       -3.777298    0.000600    0.591041
 ---------------------------------------------------------------------
 Rotational constants (GHZ):           6.5841048           1.5910290           1.3737706
 Standard basis: 6-31G(d) (6D, 7F)
 There are   112 symmetry adapted cartesian basis functions of A   symmetry.
 There are   112 symmetry adapted basis functions of A   symmetry.
   112 basis functions,   212 primitive gaussians,   112 cartesian basis functions
    25 alpha electrons       25 beta electrons
       nuclear repulsion energy       251.8480384731 Hartrees.
 NAtoms=   17 NActive=   17 NUniq=   17 SFac= 1.00D+00 NAtFMM=   60 NAOKFM=F Big=F
 Integral buffers will be    131072 words long.
 Raffenetti 1 integral format.
 Two-electron integral symmetry is turned on.
 One-electron integrals computed using PRISM.
 NBasis=   112 RedAO= T EigKep=  3.15D-03  NBF=   112
 NBsUse=   112 1.00D-06 EigRej= -1.00D+00 NBFU=   112
 Initial guess from the checkpoint file:  "PRLD-ACC-N1.chk"
 B after Tr=    -0.000000   -0.000000    0.000000
         Rot=    1.000000   -0.000000   -0.000483   -0.000001 Ang=  -0.06 deg.
 ExpMin= 1.61D-01 ExpMax= 5.48D+03 ExpMxC= 8.25D+02 IAcc=2 IRadAn=         4 AccDes= 0.00D+00
 Harris functional with IExCor=  205 and IRadAn=       4 diagonalized for initial guess.
 HarFok:  IExCor=  205 AccDes= 0.00D+00 IRadAn=         4 IDoV= 1 UseB2=F ITyADJ=14
 ICtDFT=  3500011 ScaDFX=  1.000000  1.000000  1.000000  1.000000
 FoFCou: FMM=F IPFlag=           0 FMFlag=      100000 FMFlg1=           0
         NFxFlg=           0 DoJE=T BraDBF=F KetDBF=T FulRan=T
         wScrn=  0.000000 ICntrl=       500 IOpCl=  0 I1Cent=   200000004 NGrid=           0
         NMat0=    1 NMatS0=      1 NMatT0=    0 NMatD0=    1 NMtDS0=    0 NMtDT0=    0
 Petite list used in FoFCou.
 Keep R1 ints in memory in canonical form, NReq=20924840.
 Requested convergence on RMS density matrix=1.00D-08 within 128 cycles.
 Requested convergence on MAX density matrix=1.00D-06.
 Requested convergence on             energy=1.00D-06.
 No special actions if energy rises.
 SCF Done:  E(RHF) =  -287.164082514     A.U. after    8 cycles
            NFock=  8  Conv=0.95D-08     -V/T= 2.0017
 Calling FoFJK, ICntrl=      2127 FMM=F ISym2X=0 I1Cent= 0 IOpClX= 0 NMat=1 NMatS=1 NMatT=0.
 ***** Axes restored to original set *****
 -------------------------------------------------------------------
 Center     Atomic                   Forces (Hartrees/Bohr)
 Number     Number              X              Y              Z
 -------------------------------------------------------------------
      1        7           0.016289525   -0.004322065    0.006425407
      2        1          -0.009198701    0.000033842   -0.012603923
      3        6          -0.002654782    0.009474896   -0.001991690
      4        1          -0.002786506   -0.007471960   -0.003019210
      5        1           0.004292775   -0.000517662    0.006113856
      6        6           0.005004145    0.002712923   -0.000853449
      7        1          -0.005292998   -0.001521898   -0.003840889
      8        1          -0.001874122    0.000090322    0.006796247
      9        6           0.001456504   -0.005564682    0.000796135
     10        1          -0.003463520    0.002438167   -0.004822565
     11        1          -0.000224553    0.004546275    0.006096644
     12        6          -0.008273883   -0.004859707    0.001039781
     13        1           0.001981197    0.004592278   -0.006032643
     14        1           0.004952322    0.000366342    0.006180798
     15        1          -0.001156555    0.000181361   -0.000980163
     16        8           0.001275471    0.002833639    0.011836906
     17        1          -0.000326320   -0.003012070   -0.011141243
 -------------------------------------------------------------------
 Cartesian Forces:  Max     0.016289525 RMS     0.005534075
 -----------------------------------------------------------------------------------------------
                       Internal Coordinate Forces (Hartree/Bohr or radian)
  Cent   Atom   N1       Length/X         N2         Alpha/Y        N3         Beta/Z          J
 -----------------------------------------------------------------------------------------------
      1  N            0.016777(     1)     -0.004704(    19)      0.005739(    37)
      2  H           -0.009895(     2)      0.000420(    20)     -0.012201(    38)
      3  C           -0.002654(     3)      0.009474(    21)     -0.001992(    39)
      4  H           -0.002787(     4)     -0.007472(    22)     -0.003019(    40)
      5  H            0.004293(     5)     -0.000518(    23)      0.006114(    41)
      6  C            0.005004(     6)      0.002713(    24)     -0.000853(    42)
      7  H           -0.005293(     7)     -0.001522(    25)     -0.003841(    43)
      8  H           -0.001874(     8)      0.000090(    26)      0.006796(    44)
      9  C            0.001457(     9)     -0.005565(    27)      0.000796(    45)
     10  H           -0.003464(    10)      0.002438(    28)     -0.004823(    46)
     11  H           -0.000225(    11)      0.004546(    29)      0.006097(    47)
     12  C           -0.008274(    12)     -0.004860(    30)      0.001040(    48)
     13  H            0.001981(    13)      0.004592(    31)     -0.006033(    49)
     14  H            0.004952(    14)      0.000366(    32)      0.006181(    50)
     15  H        1   0.000167(    15)      2   0.001725(    33)      3   0.000004(    51)     0
         X       15  -0.000000(    16)      1   0.000515(    34)      2   0.000001(    52)     0
     16  O       15  -0.000880(    17)     16   0.000515(    35)      1  -0.000002(    53)     0
     17  H       17  -0.011495(    18)     15   0.001964(    36)     16   0.000001(    54)     0
 -----------------------------------------------------------------------------------------------
 Internal  Forces:  Max     0.016777399 RMS     0.005148691

 GradGradGradGradGradGradGradGradGradGradGradGradGradGradGradGradGradGrad
 Berny optimization.
 Search for a local minimum.
 Step number   3 out of a maximum of  100
 All quantities printed in internal units (Hartrees-Bohrs-Radians)
 Update second derivatives using D2CorN and points    2    3
 DE= -5.50D-05 DEPred=-4.96D-05 R= 1.11D+00
 TightC=F SS=  1.41D+00  RLast= 8.30D-02 DXNew= 5.0454D-01 2.4897D-01
 Trust test= 1.11D+00 RLast= 8.30D-02 DXMaxT set to 3.00D-01
 The second derivative matrix:
                          rAH       dih
           rAH          0.01237
           dih          0.00014   3.06625
 ITU=  1  1  0
     Eigenvalues ---    0.01237   3.06625
 RFO step:  Lambda= 0.00000000D+00 EMin= 1.23742513D-02
 Quartic linear search produced a step of  0.18429.
 Variable       Old X    -DE/DX   Delta X   Delta X   Delta X     New X
                                 (Linear)    (Quad)   (Total)
   rAH        3.90393   0.00017   0.01529  -0.00000   0.01529   3.91923
   dih       -0.00001   0.00000  -0.00000   0.00000  -0.00000  -0.00001
         Item               Value     Threshold  Converged?
 Maximum Force            0.000167     0.000450     YES
 RMS     Force            0.000118     0.000300     YES
 Maximum Displacement     0.015294     0.001800     NO 
 RMS     Displacement     0.010815     0.001200     NO 
 Predicted change in Energy=-1.105277D-06
 GradGradGradGradGradGradGradGradGradGradGradGradGradGradGradGradGradGrad

 ---------------------------------------------------------------------------------------------------
                            Z-MATRIX (ANGSTROMS AND DEGREES)
   CD    Cent   Atom    N1       Length/X        N2       Alpha/Y        N3        Beta/Z          J
 ---------------------------------------------------------------------------------------------------
      1      1  N        0   0.844000          0.456000          0.923000
      2      2  H        0   1.372000          0.495000          1.798000
      3      3  C        0   1.643000          1.125000         -0.113000
      4      4  H        0   2.000000          2.097000          0.243000
      5      5  H        0   0.987000          1.307000         -0.971000
      6      6  C        0   2.779000          0.153000         -0.504000
      7      7  H        0   3.689000          0.384000          0.059000
      8      8  H        0   3.031000          0.222000         -1.566000
      9      9  C        0   2.231000         -1.240000         -0.112000
     10     10  H        0   2.866000         -1.707000          0.647000
     11     11  H        0   2.185000         -1.928000         -0.962000
     12     12  C        0   0.830000         -0.941000          0.469000
     13     13  H        0   0.542000         -1.609000          1.286000
     14     14  H        0   0.068000         -1.027000         -0.314000
     15     15  H        1   2.073967(    14)      2  112.650(    30)      3 -124.880(    45)      0
     16         X       15   1.000000(    15)      1   90.000(    31)      2    0.000(    46)      0
     17     16  O       15   0.957200(    16)     16   90.000(    32)      1  180.000(    47)      0
     18     17  H       17   0.957200(    17)     15  104.520(    33)     16   -0.000(    48)      0
 ---------------------------------------------------------------------------------------------------
                         Z-Matrix orientation:                         
 ---------------------------------------------------------------------
 Center     Atomic      Atomic             Coordinates (Angstroms)
 Number     Number       Type             X           Y           Z
 ---------------------------------------------------------------------
      1          7           0        0.844000    0.456000    0.923000
      2          1           0        1.372000    0.495000    1.798000
      3          6           0        1.643000    1.125000   -0.113000
      4          1           0        2.000000    2.097000    0.243000
      5          1           0        0.987000    1.307000   -0.971000
      6          6           0        2.779000    0.153000   -0.504000
      7          1           0        3.689000    0.384000    0.059000
      8          1           0        3.031000    0.222000   -1.566000
      9          6           0        2.231000   -1.240000   -0.112000
     10          1           0        2.866000   -1.707000    0.647000
     11          1           0        2.185000   -1.928000   -0.962000
     12          6           0        0.830000   -0.941000    0.469000
     13          1           0        0.542000   -1.609000    1.286000
     14          1           0        0.068000   -1.027000   -0.314000
     15          1           0       -1.060916    1.256076    1.103309
     16         -1           0       -0.884764    1.458373    2.066661
     17          8           0       -1.940094    1.625335    1.186527
     18          1           0       -1.997295    1.905364    2.100061
 ---------------------------------------------------------------------
                    Distance matrix (angstroms):
                    1          2          3          4          5
     1  N    0.000000
     2  H    1.022707   0.000000
     3  C    1.469441   2.030335   0.000000
     4  H    2.119343   2.319227   1.094974   0.000000
     5  H    2.081318   2.911173   1.095274   1.767502   0.000000
     6  C    2.423296   2.719525   1.545368   2.223508   2.181987
     7  H    2.974173   2.899126   2.182838   2.412664   3.035397
     8  H    3.321573   3.760759   2.202989   2.801975   2.389390
     9  C    2.423099   2.719597   2.437000   3.363771   2.961862
    10  H    2.973757   2.899248   3.177035   3.922192   3.902917
    11  H    3.321891   3.761582   3.214868   4.205577   3.449712
    12  C    1.468986   2.030296   2.295223   3.263345   2.674276
    13  H    2.118301   2.319021   3.262539   4.116801   3.714180
    14  H    2.081258   2.911605   2.674347   3.715138   2.593023
    15  H    2.073967   2.642142   2.967786   3.288844   2.915358
    16  X    2.302463   2.468451   3.354348   3.472096   3.571246
    17  O    3.031167   3.552678   3.844173   4.078854   3.650225
    18  H    3.399866   3.665040   4.331092   4.411776   4.323826
                    6          7          8          9         10
     6  C    0.000000
     7  H    1.094728   0.000000
     8  H    1.093668   1.760634   0.000000
     9  C    1.547390   2.189151   2.211687   0.000000
    10  H    2.189057   2.322790   2.940346   1.094255   0.000000
    11  H    2.212049   2.941054   2.388102   1.094514   1.761103
    12  C    2.437656   3.177673   3.215306   1.545886   2.182598
    13  H    3.363467   3.921886   4.204948   2.223350   2.412240
    14  H    2.962773   3.904061   3.450634   2.182829   3.035577
    15  H    4.306411   4.940931   4.993826   4.306284   4.940517
    16  X    4.662131   5.109237   5.482523   4.662163   5.109134
    17  O    5.224510   5.873579   5.852993   5.224399   5.873167
    18  H    5.715322   6.230123   6.446508   5.715331   6.229944
                   11         12         13         14         15
    11  H    0.000000
    12  C    2.204077   0.000000
    13  H    2.802626   1.093918   0.000000
    14  H    2.390271   1.095960   1.767314   0.000000
    15  H    4.993977   2.967331   3.288065   2.914730   0.000000
    16  X    5.483043   3.354091   3.471867   3.571048   1.000000
    17  O    5.853099   3.843741   4.078187   3.649508   0.957200
    18  H    6.446898   4.330790   4.411516   4.323412   1.513901
                   16         17         18
    16  X    0.000000
    17  O    1.384280   0.000000
    18  H    1.199434   0.957200   0.000000
 Stoichiometry    C4H11NO
 Framework group  C1[X(C4H11NO)]
 Deg. of freedom    45
 Full point group                 C1      NOp   1
 Largest Abelian subgroup         C1      NOp   1
 Largest concise Abelian subgroup C1      NOp   1
                         Standard orientation:                         
 ---------------------------------------------------------------------
 Center     Atomic      Atomic             Coordinates (Angstroms)
 Number     Number       Type             X           Y           Z
 ---------------------------------------------------------------------
      1          7           0       -0.385062   -0.000103    0.486146
      2          1           0       -0.232040    0.000295    1.497340
      3          6           0        0.339310    1.147493   -0.077385
      4          1           0        0.117593    2.058769    0.487758
      5          1           0       -0.021228    1.296430   -1.100837
      6          6           0        1.838754    0.773674   -0.086804
      7          1           0        2.333872    1.161203    0.809359
      8          1           0        2.361245    1.194031   -0.950756
      9          6           0        1.838589   -0.773716   -0.086834
     10          1           0        2.333411   -1.161587    0.808768
     11          1           0        2.361147   -1.194071   -0.951817
     12          6           0        0.338663   -1.147730   -0.076965
     13          1           0        0.117056   -2.058032    0.487745
     14          1           0       -0.022258   -1.296592   -1.101028
     15          1           0       -2.397030    0.000077   -0.017166
     16          8           0       -3.325616    0.000159   -0.249460
     17          1           0       -3.783304    0.000598    0.591226
 ---------------------------------------------------------------------
 Rotational constants (GHZ):           6.5832370           1.5863586           1.3703248
 Standard basis: 6-31G(d) (6D, 7F)
 There are   112 symmetry adapted cartesian basis functions of A   symmetry.
 There are   112 symmetry adapted basis functions of A   symmetry.
   112 basis functions,   212 primitive gaussians,   112 cartesian basis functions
    25 alpha electrons       25 beta electrons
       nuclear repulsion energy       251.7418141796 Hartrees.
 NAtoms=   17 NActive=   17 NUniq=   17 SFac= 1.00D+00 NAtFMM=   60 NAOKFM=F Big=F
 Integral buffers will be    131072 words long.
 Raffenetti 1 integral format.
 Two-electron integral symmetry is turned on.
 One-electron integrals computed using PRISM.
 NBasis=   112 RedAO= T EigKep=  3.15D-03  NBF=   112
 NBsUse=   112 1.00D-06 EigRej= -1.00D+00 NBFU=   112
 Initial guess from the checkpoint file:  "PRLD-ACC-N1.chk"
 B after Tr=     0.000000   -0.000000    0.000000
         Rot=    1.000000   -0.000000   -0.000088   -0.000000 Ang=  -0.01 deg.
 Keep R1 ints in memory in canonical form, NReq=20924840.
 Requested convergence on RMS density matrix=1.00D-08 within 128 cycles.
 Requested convergence on MAX density matrix=1.00D-06.
 Requested convergence on             energy=1.00D-06.
 No special actions if energy rises.
 SCF Done:  E(RHF) =  -287.164083780     A.U. after    7 cycles
            NFock=  7  Conv=0.63D-08     -V/T= 2.0017
 Calling FoFJK, ICntrl=      2127 FMM=F ISym2X=0 I1Cent= 0 IOpClX= 0 NMat=1 NMatS=1 NMatT=0.
 ***** Axes restored to original set *****
 -------------------------------------------------------------------
 Center     Atomic                   Forces (Hartrees/Bohr)
 Number     Number              X              Y              Z
 -------------------------------------------------------------------
      1        7           0.016130220   -0.004255659    0.006438664
      2        1          -0.009200254    0.000033245   -0.012608206
      3        6          -0.002671297    0.009456115   -0.001969705
      4        1          -0.002783926   -0.007469844   -0.003019454
      5        1           0.004296849   -0.000517539    0.006107709
      6        6           0.005007486    0.002713270   -0.000859576
      7        1          -0.005292052   -0.001521882   -0.003840601
      8        1          -0.001871618    0.000088582    0.006794626
      9        6           0.001457693   -0.005569816    0.000791560
     10        1          -0.003462768    0.002437685   -0.004822137
     11        1          -0.000221862    0.004545016    0.006094881
     12        6          -0.008270345   -0.004827481    0.001047423
     13        1           0.001981740    0.004589214   -0.006031434
     14        1           0.004954188    0.000360860    0.006176217
     15        1          -0.001188539    0.000193365   -0.000982094
     16        8           0.001448944    0.002760042    0.011817844
     17        1          -0.000314459   -0.003015173   -0.011135717
 -------------------------------------------------------------------
 Cartesian Forces:  Max     0.016130220 RMS     0.005522169
 -----------------------------------------------------------------------------------------------
                       Internal Coordinate Forces (Hartree/Bohr or radian)
  Cent   Atom   N1       Length/X         N2         Alpha/Y        N3         Beta/Z          J
 -----------------------------------------------------------------------------------------------
      1  N            0.016762(     1)     -0.004698(    19)      0.005742(    37)
      2  H           -0.009887(     2)      0.000415(    20)     -0.012211(    38)
      3  C           -0.002671(     3)      0.009455(    21)     -0.001970(    39)
      4  H           -0.002784(     4)     -0.007470(    22)     -0.003019(    40)
      5  H            0.004297(     5)     -0.000518(    23)      0.006108(    41)
      6  C            0.005007(     6)      0.002713(    24)     -0.000860(    42)
      7  H           -0.005292(     7)     -0.001522(    25)     -0.003841(    43)
      8  H           -0.001872(     8)      0.000089(    26)      0.006795(    44)
      9  C            0.001458(     9)     -0.005570(    27)      0.000792(    45)
     10  H           -0.003463(    10)      0.002438(    28)     -0.004822(    46)
     11  H           -0.000222(    11)      0.004545(    29)      0.006095(    47)
     12  C           -0.008270(    12)     -0.004827(    30)      0.001047(    48)
     13  H            0.001982(    13)      0.004589(    31)     -0.006031(    49)
     14  H            0.004954(    14)      0.000361(    32)      0.006176(    50)
     15  H        1  -0.000000(    15)      2   0.001703(    33)      3   0.000004(    51)     0
         X       15   0.000000(    16)      1   0.000484(    34)      2   0.000001(    52)     0
     16  O       15  -0.001081(    17)     16   0.000484(    35)      1  -0.000002(    53)     0
     17  H       17  -0.011491(    18)     15   0.001941(    36)     16   0.000001(    54)     0
 -----------------------------------------------------------------------------------------------
 Internal  Forces:  Max     0.016762472 RMS     0.005146419

 GradGradGradGradGradGradGradGradGradGradGradGradGradGradGradGradGradGrad
 Berny optimization.
 Search for a local minimum.
 Step number   4 out of a maximum of  100
 All quantities printed in internal units (Hartrees-Bohrs-Radians)
 Update second derivatives using D2CorN and points    3    4
 DE= -1.27D-06 DEPred=-1.11D-06 R= 1.15D+00
 TightC=F SS=  1.41D+00  RLast= 1.53D-02 DXNew= 5.0454D-01 4.5882D-02
 Trust test= 1.15D+00 RLast= 1.53D-02 DXMaxT set to 3.00D-01
 The second derivative matrix:
                          rAH       dih
           rAH          0.01093
           dih          0.00012   3.06625
 ITU=  1  1  1
     Eigenvalues ---    0.01093   3.06625
 RFO step:  Lambda= 0.00000000D+00 EMin= 1.09292118D-02
 Quartic linear search produced a step of -0.00157.
 Variable       Old X    -DE/DX   Delta X   Delta X   Delta X     New X
                                 (Linear)    (Quad)   (Total)
   rAH        3.91923  -0.00000  -0.00002  -0.00000  -0.00002   3.91920
   dih       -0.00001   0.00000   0.00000   0.00000   0.00000  -0.00001
         Item               Value     Threshold  Converged?
 Maximum Force            0.000001     0.000450     YES
 RMS     Force            0.000000     0.000300     YES
 Maximum Displacement     0.000024     0.001800     YES
 RMS     Displacement     0.000017     0.001200     YES
 Predicted change in Energy=-3.098173D-12
 Optimization completed.
    -- Stationary point found.
                       ----------------------------
                       !   Optimized Parameters   !
                       ! (Angstroms and Degrees)  !
 ----------------------                            ----------------------
 !      Name          Value   Derivative information (Atomic Units)     !
 ------------------------------------------------------------------------
 !       rAH         2.074    -DE/DX =    0.0                           !
 !       dih        -0.0003   -DE/DX =    0.0                           !
 ------------------------------------------------------------------------
 GradGradGradGradGradGradGradGradGradGradGradGradGradGradGradGradGradGrad

 ---------------------------------------------------------------------------------------------------
                            Z-MATRIX (ANGSTROMS AND DEGREES)
   CD    Cent   Atom    N1       Length/X        N2       Alpha/Y        N3        Beta/Z          J
 ---------------------------------------------------------------------------------------------------
      1      1  N        0   0.844000          0.456000          0.923000
      2      2  H        0   1.372000          0.495000          1.798000
      3      3  C        0   1.643000          1.125000         -0.113000
      4      4  H        0   2.000000          2.097000          0.243000
      5      5  H        0   0.987000          1.307000         -0.971000
      6      6  C        0   2.779000          0.153000         -0.504000
      7      7  H        0   3.689000          0.384000          0.059000
      8      8  H        0   3.031000          0.222000         -1.566000
      9      9  C        0   2.231000         -1.240000         -0.112000
     10     10  H        0   2.866000         -1.707000          0.647000
     11     11  H        0   2.185000         -1.928000         -0.962000
     12     12  C        0   0.830000         -0.941000          0.469000
     13     13  H        0   0.542000         -1.609000          1.286000
     14     14  H        0   0.068000         -1.027000         -0.314000
     15     15  H        1   2.073967(    14)      2  112.650(    30)      3 -124.880(    45)      0
     16         X       15   1.000000(    15)      1   90.000(    31)      2    0.000(    46)      0
     17     16  O       15   0.957200(    16)     16   90.000(    32)      1  180.000(    47)      0
     18     17  H       17   0.957200(    17)     15  104.520(    33)     16   -0.000(    48)      0
 ---------------------------------------------------------------------------------------------------
                         Z-Matrix orientation:                         
 ---------------------------------------------------------------------
 Center     Atomic      Atomic             Coordinates (Angstroms)
 Number     Number       Type             X           Y           Z
 ---------------------------------------------------------------------
      1          7           0        0.844000    0.456000    0.923000
      2          1           0        1.372000    0.495000    1.798000
      3          6           0        1.643000    1.125000   -0.113000
      4          1           0        2.000000    2.097000    0.243000
      5          1           0        0.987000    1.307000   -0.971000
      6          6           0        2.779000    0.153000   -0.504000
      7          1           0        3.689000    0.384000    0.059000
      8          1           0        3.031000    0.222000   -1.566000
      9          6           0        2.231000   -1.240000   -0.112000
     10          1           0        2.866000   -1.707000    0.647000
     11          1           0        2.185000   -1.928000   -0.962000
     12          6           0        0.830000   -0.941000    0.469000
     13          1           0        0.542000   -1.609000    1.286000
     14          1           0        0.068000   -1.027000   -0.314000
     15          1           0       -1.060916    1.256076    1.103309
     16         -1           0       -0.884764    1.458373    2.066661
     17          8           0       -1.940094    1.625335    1.186527
     18          1           0       -1.997295    1.905364    2.100061
 ---------------------------------------------------------------------
                    Distance matrix (angstroms):
                    1          2          3          4          5
     1  N    0.000000
     2  H    1.022707   0.000000
     3  C    1.469441   2.030335   0.000000
     4  H    2.119343   2.319227   1.094974   0.000000
     5  H    2.081318   2.911173   1.095274   1.767502   0.000000
     6  C    2.423296   2.719525   1.545368   2.223508   2.181987
     7  H    2.974173   2.899126   2.182838   2.412664   3.035397
     8  H    3.321573   3.760759   2.202989   2.801975   2.389390
     9  C    2.423099   2.719597   2.437000   3.363771   2.961862
    10  H    2.973757   2.899248   3.177035   3.922192   3.902917
    11  H    3.321891   3.761582   3.214868   4.205577   3.449712
    12  C    1.468986   2.030296   2.295223   3.263345   2.674276
    13  H    2.118301   2.319021   3.262539   4.116801   3.714180
    14  H    2.081258   2.911605   2.674347   3.715138   2.593023
    15  H    2.073967   2.642142   2.967786   3.288844   2.915358
    16  X    2.302463   2.468451   3.354348   3.472096   3.571246
    17  O    3.031167   3.552678   3.844173   4.078854   3.650225
    18  H    3.399866   3.665040   4.331092   4.411776   4.323826
                    6          7          8          9         10
     6  C    0.000000
     7  H    1.094728   0.000000
     8  H    1.093668   1.760634   0.000000
     9  C    1.547390   2.189151   2.211687   0.000000
    10  H    2.189057   2.322790   2.940346   1.094255   0.000000
    11  H    2.212049   2.941054   2.388102   1.094514   1.761103
    12  C    2.437656   3.177673   3.215306   1.545886   2.182598
    13  H    3.363467   3.921886   4.204948   2.223350   2.412240
    14  H    2.962773   3.904061   3.450634   2.182829   3.035577
    15  H    4.306411   4.940931   4.993826   4.306284   4.940517
    16  X    4.662131   5.109237   5.482523   4.662163   5.109134
    17  O    5.224510   5.873579   5.852993   5.224399   5.873167
    18  H    5.715322   6.230123   6.446508   5.715331   6.229944
                   11         12         13         14         15
    11  H    0.000000
    12  C    2.204077   0.000000
    13  H    2.802626   1.093918   0.000000
    14  H    2.390271   1.095960   1.767314   0.000000
    15  H    4.993977   2.967331   3.288065   2.914730   0.000000
    16  X    5.483043   3.354091   3.471867   3.571048   1.000000
    17  O    5.853099   3.843741   4.078187   3.649508   0.957200
    18  H    6.446898   4.330790   4.411516   4.323412   1.513901
                   16         17         18
    16  X    0.000000
    17  O    1.384280   0.000000
    18  H    1.199434   0.957200   0.000000
 Stoichiometry    C4H11NO
 Framework group  C1[X(C4H11NO)]
 Deg. of freedom    45
 Full point group                 C1      NOp   1
 Largest Abelian subgroup         C1      NOp   1
 Largest concise Abelian subgroup C1      NOp   1
                         Standard orientation:                         
 ---------------------------------------------------------------------
 Center     Atomic      Atomic             Coordinates (Angstroms)
 Number     Number       Type             X           Y           Z
 ---------------------------------------------------------------------
      1          7           0       -0.385062   -0.000103    0.486146
      2          1           0       -0.232040    0.000295    1.497340
      3          6           0        0.339310    1.147493   -0.077385
      4          1           0        0.117593    2.058769    0.487758
      5          1           0       -0.021228    1.296430   -1.100837
      6          6           0        1.838754    0.773674   -0.086804
      7          1           0        2.333872    1.161203    0.809359
      8          1           0        2.361245    1.194031   -0.950756
      9          6           0        1.838589   -0.773716   -0.086834
     10          1           0        2.333411   -1.161587    0.808768
     11          1           0        2.361147   -1.194071   -0.951817
     12          6           0        0.338663   -1.147730   -0.076965
     13          1           0        0.117056   -2.058032    0.487745
     14          1           0       -0.022258   -1.296592   -1.101028
     15          1           0       -2.397030    0.000077   -0.017166
     16          8           0       -3.325616    0.000159   -0.249460
     17          1           0       -3.783304    0.000598    0.591226
 ---------------------------------------------------------------------
 Rotational constants (GHZ):           6.5832370           1.5863586           1.3703248

 **********************************************************************

            Population analysis using the SCF density.

 **********************************************************************

 Orbital symmetries:
       Occupied  (A) (A) (A) (A) (A) (A) (A) (A) (A) (A) (A) (A)
                 (A) (A) (A) (A) (A) (A) (A) (A) (A) (A) (A) (A)
                 (A)
       Virtual   (A) (A) (A) (A) (A) (A) (A) (A) (A) (A) (A) (A)
                 (A) (A) (A) (A) (A) (A) (A) (A) (A) (A) (A) (A)
                 (A) (A) (A) (A) (A) (A) (A) (A) (A) (A) (A) (A)
                 (A) (A) (A) (A) (A) (A) (A) (A) (A) (A) (A) (A)
                 (A) (A) (A) (A) (A) (A) (A) (A) (A) (A) (A) (A)
                 (A) (A) (A) (A) (A) (A) (A) (A) (A) (A) (A) (A)
                 (A) (A) (A) (A) (A) (A) (A) (A) (A) (A) (A) (A)
                 (A) (A) (A)
 The electronic state is 1-A.
 Alpha  occ. eigenvalues --  -20.51426 -15.56407 -11.25454 -11.25450 -11.22849
 Alpha  occ. eigenvalues --  -11.22793  -1.30028  -1.23505  -1.03199  -0.98129
 Alpha  occ. eigenvalues --   -0.82808  -0.79478  -0.68945  -0.67378  -0.64510
 Alpha  occ. eigenvalues --   -0.60279  -0.59618  -0.53410  -0.52199  -0.50570
 Alpha  occ. eigenvalues --   -0.49007  -0.48681  -0.46748  -0.45682  -0.39461
 Alpha virt. eigenvalues --    0.19907   0.23454   0.25946   0.28154   0.28218
 Alpha virt. eigenvalues --    0.29173   0.31670   0.32837   0.33172   0.35166
 Alpha virt. eigenvalues --    0.36491   0.39650   0.40006   0.43935   0.47334
 Alpha virt. eigenvalues --    0.51098   0.71728   0.75327   0.75368   0.78505
 Alpha virt. eigenvalues --    0.78955   0.82396   0.90458   0.90936   0.92841
 Alpha virt. eigenvalues --    0.93841   1.01198   1.01723   1.07929   1.09672
 Alpha virt. eigenvalues --    1.11280   1.11724   1.13438   1.14410   1.15971
 Alpha virt. eigenvalues --    1.17192   1.19316   1.20050   1.20480   1.21143
 Alpha virt. eigenvalues --    1.21261   1.22616   1.23287   1.32257   1.44152
 Alpha virt. eigenvalues --    1.47997   1.49806   1.57797   1.58179   1.64726
 Alpha virt. eigenvalues --    1.87935   1.89701   2.00274   2.05950   2.07187
 Alpha virt. eigenvalues --    2.07785   2.10527   2.10989   2.12537   2.18463
 Alpha virt. eigenvalues --    2.21485   2.28962   2.31197   2.33622   2.41267
 Alpha virt. eigenvalues --    2.41957   2.42138   2.49690   2.55902   2.57925
 Alpha virt. eigenvalues --    2.70395   2.71778   2.72454   2.80654   2.88961
 Alpha virt. eigenvalues --    2.94518   2.97674   2.97930   3.01530   3.01886
 Alpha virt. eigenvalues --    3.22455   4.13762   4.44459   4.60287   4.66838
 Alpha virt. eigenvalues --    4.87231   5.03327
          Condensed to atoms (all electrons):
               1          2          3          4          5          6
     1  N    7.131170   0.323694   0.272724  -0.033720  -0.046689  -0.080668
     2  H    0.323694   0.421418  -0.039830  -0.005140   0.005384  -0.000862
     3  C    0.272724  -0.039830   4.992196   0.404240   0.407689   0.334156
     4  H   -0.033720  -0.005140   0.404240   0.511664  -0.024848  -0.034941
     5  H   -0.046689   0.005384   0.407689  -0.024848   0.525281  -0.051187
     6  C   -0.080668  -0.000862   0.334156  -0.034941  -0.051187   5.197256
     7  H    0.002435   0.000964  -0.038623  -0.004049   0.003659   0.396964
     8  H    0.004128  -0.000028  -0.032746   0.001237  -0.002508   0.394374
     9  C   -0.080757  -0.000867  -0.060360   0.003834  -0.000309   0.317088
    10  H    0.002446   0.000964   0.003247  -0.000162  -0.000011  -0.038340
    11  H    0.004126  -0.000028   0.002878  -0.000061   0.000136  -0.032782
    12  C    0.272507  -0.039808  -0.092563   0.005856  -0.001483  -0.060257
    13  H   -0.033732  -0.005145   0.005862  -0.000109  -0.000166   0.003823
    14  H   -0.046753   0.005387  -0.001500  -0.000166   0.003269  -0.000300
    15  H    0.026876  -0.000618  -0.001297  -0.000028  -0.000816   0.000191
    16  O   -0.013276   0.000319   0.000269   0.000002   0.000358  -0.000005
    17  H    0.001174  -0.000050   0.000002   0.000003  -0.000016   0.000000
               7          8          9         10         11         12
     1  N    0.002435   0.004128  -0.080757   0.002446   0.004126   0.272507
     2  H    0.000964  -0.000028  -0.000867   0.000964  -0.000028  -0.039808
     3  C   -0.038623  -0.032746  -0.060360   0.003247   0.002878  -0.092563
     4  H   -0.004049   0.001237   0.003834  -0.000162  -0.000061   0.005856
     5  H    0.003659  -0.002508  -0.000309  -0.000011   0.000136  -0.001483
     6  C    0.396964   0.394374   0.317088  -0.038340  -0.032782  -0.060257
     7  H    0.537524  -0.025196  -0.038378  -0.006155   0.002504   0.003241
     8  H   -0.025196   0.516493  -0.032723   0.002500  -0.003717   0.002869
     9  C   -0.038378  -0.032723   5.197489   0.396936   0.394284   0.334294
    10  H   -0.006155   0.002500   0.396936   0.537351  -0.025164  -0.038649
    11  H    0.002504  -0.003717   0.394284  -0.025164   0.516787  -0.032718
    12  C    0.003241   0.002869   0.334294  -0.038649  -0.032718   4.992001
    13  H   -0.000162  -0.000061  -0.034891  -0.004034   0.001234   0.404322
    14  H   -0.000011   0.000135  -0.051177   0.003657  -0.002505   0.407672
    15  H   -0.000004  -0.000004   0.000191  -0.000004  -0.000004  -0.001301
    16  O    0.000000   0.000000  -0.000005   0.000000   0.000000   0.000271
    17  H   -0.000000  -0.000000   0.000000  -0.000000  -0.000000   0.000002
              13         14         15         16         17
     1  N   -0.033732  -0.046753   0.026876  -0.013276   0.001174
     2  H   -0.005145   0.005387  -0.000618   0.000319  -0.000050
     3  C    0.005862  -0.001500  -0.001297   0.000269   0.000002
     4  H   -0.000109  -0.000166  -0.000028   0.000002   0.000003
     5  H   -0.000166   0.003269  -0.000816   0.000358  -0.000016
     6  C    0.003823  -0.000300   0.000191  -0.000005   0.000000
     7  H   -0.000162  -0.000011  -0.000004   0.000000  -0.000000
     8  H   -0.000061   0.000135  -0.000004   0.000000  -0.000000
     9  C   -0.034891  -0.051177   0.000191  -0.000005   0.000000
    10  H   -0.004034   0.003657  -0.000004   0.000000  -0.000000
    11  H    0.001234  -0.002505  -0.000004   0.000000  -0.000000
    12  C    0.404322   0.407672  -0.001301   0.000271   0.000002
    13  H    0.511320  -0.024848  -0.000028   0.000002   0.000003
    14  H   -0.024848   0.525553  -0.000819   0.000359  -0.000016
    15  H   -0.000028  -0.000819   0.246636   0.253385  -0.017190
    16  O    0.000002   0.000359   0.253385   8.427679   0.263993
    17  H    0.000003  -0.000016  -0.017190   0.263993   0.338669
 Mulliken charges:
               1
     1  N   -0.705685
     2  H    0.334245
     3  C   -0.156344
     4  H    0.176388
     5  H    0.182255
     6  C   -0.344509
     7  H    0.165286
     8  H    0.175248
     9  C   -0.344651
    10  H    0.165417
    11  H    0.175031
    12  C   -0.156255
    13  H    0.176609
    14  H    0.182061
    15  H    0.494833
    16  O   -0.933352
    17  H    0.413424
 Sum of Mulliken charges =  -0.00000
 Mulliken charges with hydrogens summed into heavy atoms:
               1
     1  N   -0.371440
     3  C    0.202299
     6  C   -0.003975
     9  C   -0.004204
    12  C    0.202416
    16  O   -0.025096
 Electronic spatial extent (au):  <R**2>=            894.0363
 Charge=              0.0000 electrons
 Dipole moment (field-independent basis, Debye):
    X=              3.2643    Y=              0.0007    Z=              2.3471  Tot=              4.0205
 Quadrupole moment (field-independent basis, Debye-Ang):
   XX=            -47.7851   YY=            -38.1944   ZZ=            -36.0760
   XY=              0.0004   XZ=             -7.2776   YZ=             -0.0025
 Traceless Quadrupole moment (field-independent basis, Debye-Ang):
   XX=             -7.0999   YY=              2.4908   ZZ=              4.6092
   XY=              0.0004   XZ=             -7.2776   YZ=             -0.0025
 Octapole moment (field-independent basis, Debye-Ang**2):
  XXX=              5.0631  YYY=             -0.0023  ZZZ=              4.6310  XYY=             -3.2963
  XXY=              0.0163  XXZ=             26.9336  XZZ=             -5.3652  YZZ=              0.0016
  YYZ=              1.4460  XYZ=             -0.0076
 Hexadecapole moment (field-independent basis, Debye-Ang**3):
 XXXX=           -849.4773 YYYY=           -228.9950 ZZZZ=            -74.4523 XXXY=             -0.0310
 XXXZ=           -103.6593 YYYX=              0.0068 YYYZ=             -0.0163 ZZZX=             -4.2321
 ZZZY=             -0.0081 XXYY=           -179.9278 XXZZ=           -138.5798 YYZZ=            -50.1293
 XXYZ=              0.0041 YYXZ=             -1.5505 ZZXY=             -0.0009
 N-N= 2.517418141796D+02 E-N=-1.175926601719D+03  KE= 2.866751085255D+02
 1\1\GINC-C401-011\FOpt\RHF\6-31G(d)\C4H11N1O1\TG455515\31-Mar-2021\1\\
 # HF/6-31G* Opt=(Z-matrix,MaxCycles=100) Geom=PrintInputOrient\\<qmtoo
 l> simtype="Geometry optimization" </qmtool> PRLD-ACC-N1\\0,1\N,0,0.84
 39999819,0.4560000002,0.9229999781\H,0,1.371999979,0.4950000048,1.7979
 999781\C,0,1.6430000067,1.125,-0.112999998\H,0,2.,2.0969998837,0.24300
 00007\H,0,0.9869999886,1.307000041,-0.9710000157\C,0,2.7790000439,0.15
 29999971,-0.5040000081\H,0,3.6889998913,0.3840000033,0.0590000004\H,0,
 3.0309998989,0.2220000029,-1.5659999847\C,0,2.2309999466,-1.2400000095
 ,-0.1120000035\H,0,2.8659999371,-1.7070000172,0.6470000148\H,0,2.18499
 99428,-1.9279999733,-0.9620000124\C,0,0.8299999833,-0.9409999847,0.469
 0000117\H,0,0.5419999957,-1.6089999676,1.2860000134\H,0,0.0680000037,-
 1.0269999504,-0.3140000105\H,1,rAH,2,112.65,3,-124.88,0\X,15,1.,1,90.,
 2,0.,0\O,15,0.9572,16,90.,1,180.,0\H,17,0.9572,15,104.52,16,dih,0\\rAH
 =2.0739667\dih=-0.00034276\\Version=ES64L-G16RevA.03\State=1-A\HF=-287
 .1640838\RMSD=6.256e-09\RMSF=5.522e-03\Dipole=1.4530928,-0.4487859,0.4
 349055\Quadrupole=-6.6500374,1.059175,5.5908624,3.0544883,-1.025197,1.
 4532848\PG=C01 [X(C4H11N1O1)]\\@


 A SUCCESSFUL PURSUIT OF SCIENCE MAKES A MAN THE
 BENEFACTOR OF ALL MANKIND OF EVERY AGE.
   --  JOSEPH PRIESTLEY, "EXPERIMENTS AND
 OBSERVATIONS ON DIFFERENT KINDS OF AIR", 1774
 Job cpu time:       0 days  0 hours  1 minutes 12.2 seconds.
 Elapsed time:       0 days  0 hours  1 minutes 10.4 seconds.
 File lengths (MBytes):  RWF=     10 Int=      0 D2E=      0 Chk=      2 Scr=      1
 Normal termination of Gaussian 16 at Wed Mar 31 17:08:19 2021.
