 Entering Gaussian System, Link 0=g16
 Initial command:
 /home1/apps/gaussian/16rA.03/g16/l1.exe "/tmp/Gau-271378.inp" -scrdir="/tmp/"
 Entering Link 1 = /home1/apps/gaussian/16rA.03/g16/l1.exe PID=    271379.
  
 Copyright (c) 1988,1990,1992,1993,1995,1998,2003,2009,2016,
            Gaussian, Inc.  All Rights Reserved.
  
 This is part of the Gaussian(R) 16 program.  It is based on
 the Gaussian(R) 09 system (copyright 2009, Gaussian, Inc.),
 the Gaussian(R) 03 system (copyright 2003, Gaussian, Inc.),
 the Gaussian(R) 98 system (copyright 1998, Gaussian, Inc.),
 the Gaussian(R) 94 system (copyright 1995, Gaussian, Inc.),
 the Gaussian 92(TM) system (copyright 1992, Gaussian, Inc.),
 the Gaussian 90(TM) system (copyright 1990, Gaussian, Inc.),
 the Gaussian 88(TM) system (copyright 1988, Gaussian, Inc.),
 the Gaussian 86(TM) system (copyright 1986, Carnegie Mellon
 University), and the Gaussian 82(TM) system (copyright 1983,
 Carnegie Mellon University). Gaussian is a federally registered
 trademark of Gaussian, Inc.
  
 This software contains proprietary and confidential information,
 including trade secrets, belonging to Gaussian, Inc.
  
 This software is provided under written license and may be
 used, copied, transmitted, or stored only in accord with that
 written license.
  
 The following legend is applicable only to US Government
 contracts under FAR:
  
                    RESTRICTED RIGHTS LEGEND
  
 Use, reproduction and disclosure by the US Government is
 subject to restrictions as set forth in subparagraphs (a)
 and (c) of the Commercial Computer Software - Restricted
 Rights clause in FAR 52.227-19.
  
 Gaussian, Inc.
 340 Quinnipiac St., Bldg. 40, Wallingford CT 06492
  
  
 ---------------------------------------------------------------
 Warning -- This program may not be used in any manner that
 competes with the business of Gaussian, Inc. or will provide
 assistance to any competitor of Gaussian, Inc.  The licensee
 of this program is prohibited from giving any competitor of
 Gaussian, Inc. access to this program.  By using this program,
 the user acknowledges that Gaussian, Inc. is engaged in the
 business of creating and licensing software in the field of
 computational chemistry and represents and warrants to the
 licensee that it is not a competitor of Gaussian, Inc. and that
 it will not use this program in any manner prohibited above.
 ---------------------------------------------------------------
  

 Cite this work as:
 Gaussian 16, Revision A.03,
 M. J. Frisch, G. W. Trucks, H. B. Schlegel, G. E. Scuseria, 
 M. A. Robb, J. R. Cheeseman, G. Scalmani, V. Barone, 
 G. A. Petersson, H. Nakatsuji, X. Li, M. Caricato, A. V. Marenich, 
 J. Bloino, B. G. Janesko, R. Gomperts, B. Mennucci, H. P. Hratchian, 
 J. V. Ortiz, A. F. Izmaylov, J. L. Sonnenberg, D. Williams-Young, 
 F. Ding, F. Lipparini, F. Egidi, J. Goings, B. Peng, A. Petrone, 
 T. Henderson, D. Ranasinghe, V. G. Zakrzewski, J. Gao, N. Rega, 
 G. Zheng, W. Liang, M. Hada, M. Ehara, K. Toyota, R. Fukuda, 
 J. Hasegawa, M. Ishida, T. Nakajima, Y. Honda, O. Kitao, H. Nakai, 
 T. Vreven, K. Throssell, J. A. Montgomery, Jr., J. E. Peralta, 
 F. Ogliaro, M. J. Bearpark, J. J. Heyd, E. N. Brothers, K. N. Kudin, 
 V. N. Staroverov, T. A. Keith, R. Kobayashi, J. Normand, 
 K. Raghavachari, A. P. Rendell, J. C. Burant, S. S. Iyengar, 
 J. Tomasi, M. Cossi, J. M. Millam, M. Klene, C. Adamo, R. Cammi, 
 J. W. Ochterski, R. L. Martin, K. Morokuma, O. Farkas, 
 J. B. Foresman, and D. J. Fox, Gaussian, Inc., Wallingford CT, 2016.
 
 ******************************************
 Gaussian 16:  ES64L-G16RevA.03 25-Dec-2016
                31-Mar-2021 
 ******************************************
 %chk=prld-resp.chk
 %nproc=1
 Will use up to    1 processors via shared memory.
 %mem=1GB
 ---------------------------------------------------------
 #P HF/6-31G* SCF=Tight Pop=MK IOp(6/33=2,6/41=10,6/42=17)
 ---------------------------------------------------------
 1/38=1,172=1/1;
 2/12=2,17=6,18=5,40=1/2;
 3/5=1,6=6,7=1,11=9,25=1,30=1/1,2,3;
 4//1;
 5/5=2,32=2,38=5/2;
 6/7=2,8=2,9=2,10=2,15=8,20=1,28=1,33=2,41=10,42=17/1,2;
 99/5=1,9=1/99;
 Leave Link    1 at Wed Mar 31 17:05:52 2021, MaxMem=   134217728 cpu:               0.1 elap:               0.2
 (Enter /home1/apps/gaussian/16rA.03/g16/l101.exe)
 --------------------------------------------
 <qmtool> simtype="ESP Calculation" </qmtool>
 --------------------------------------------
 Symbolic Z-matrix:
 Charge =  0 Multiplicity = 1
 N                     0.844     0.456     0.923 
 H                     1.372     0.495     1.798 
 C                     1.643     1.125    -0.113 
 H                     2.        2.097     0.243 
 H                     0.987     1.307    -0.971 
 C                     2.779     0.153    -0.504 
 H                     3.689     0.384     0.059 
 H                     3.031     0.222    -1.566 
 C                     2.231    -1.24     -0.112 
 H                     2.866    -1.707     0.647 
 H                     2.185    -1.928    -0.962 
 C                     0.83     -0.941     0.469 
 H                     0.542    -1.609     1.286 
 H                     0.068    -1.027    -0.314 
 
 ITRead=  0  0  0  0  0  0  0  0  0  0  0  0  0  0
 MicOpt= -1 -1 -1 -1 -1 -1 -1 -1 -1 -1 -1 -1 -1 -1
 NAtoms=     14 NQM=       14 NQMF=       0 NMMI=      0 NMMIF=      0
                NMic=       0 NMicF=      0.
                    Isotopes and Nuclear Properties:
 (Nuclear quadrupole moments (NQMom) in fm**2, nuclear magnetic moments (NMagM)
  in nuclear magnetons)

  Atom         1           2           3           4           5           6           7           8           9          10
 IAtWgt=          14           1          12           1           1          12           1           1          12           1
 AtmWgt=  14.0030740   1.0078250  12.0000000   1.0078250   1.0078250  12.0000000   1.0078250   1.0078250  12.0000000   1.0078250
 NucSpn=           2           1           0           1           1           0           1           1           0           1
 AtZEff=  -0.0000000  -0.0000000  -0.0000000  -0.0000000  -0.0000000  -0.0000000  -0.0000000  -0.0000000  -0.0000000  -0.0000000
 NQMom=    2.0440000   0.0000000   0.0000000   0.0000000   0.0000000   0.0000000   0.0000000   0.0000000   0.0000000   0.0000000
 NMagM=    0.4037610   2.7928460   0.0000000   2.7928460   2.7928460   0.0000000   2.7928460   2.7928460   0.0000000   2.7928460
 AtZNuc=   7.0000000   1.0000000   6.0000000   1.0000000   1.0000000   6.0000000   1.0000000   1.0000000   6.0000000   1.0000000

  Atom        11          12          13          14
 IAtWgt=           1          12           1           1
 AtmWgt=   1.0078250  12.0000000   1.0078250   1.0078250
 NucSpn=           1           0           1           1
 AtZEff=  -0.0000000  -0.0000000  -0.0000000  -0.0000000
 NQMom=    0.0000000   0.0000000   0.0000000   0.0000000
 NMagM=    2.7928460   0.0000000   2.7928460   2.7928460
 AtZNuc=   1.0000000   6.0000000   1.0000000   1.0000000
 Leave Link  101 at Wed Mar 31 17:05:52 2021, MaxMem=   134217728 cpu:               0.1 elap:               0.1
 (Enter /home1/apps/gaussian/16rA.03/g16/l202.exe)
                          Input orientation:                          
 ---------------------------------------------------------------------
 Center     Atomic      Atomic             Coordinates (Angstroms)
 Number     Number       Type             X           Y           Z
 ---------------------------------------------------------------------
      1          7           0        0.844000    0.456000    0.923000
      2          1           0        1.372000    0.495000    1.798000
      3          6           0        1.643000    1.125000   -0.113000
      4          1           0        2.000000    2.097000    0.243000
      5          1           0        0.987000    1.307000   -0.971000
      6          6           0        2.779000    0.153000   -0.504000
      7          1           0        3.689000    0.384000    0.059000
      8          1           0        3.031000    0.222000   -1.566000
      9          6           0        2.231000   -1.240000   -0.112000
     10          1           0        2.866000   -1.707000    0.647000
     11          1           0        2.185000   -1.928000   -0.962000
     12          6           0        0.830000   -0.941000    0.469000
     13          1           0        0.542000   -1.609000    1.286000
     14          1           0        0.068000   -1.027000   -0.314000
 ---------------------------------------------------------------------
                    Distance matrix (angstroms):
                    1          2          3          4          5
     1  N    0.000000
     2  H    1.022707   0.000000
     3  C    1.469441   2.030335   0.000000
     4  H    2.119343   2.319227   1.094974   0.000000
     5  H    2.081318   2.911173   1.095274   1.767502   0.000000
     6  C    2.423296   2.719525   1.545368   2.223508   2.181987
     7  H    2.974173   2.899126   2.182838   2.412664   3.035397
     8  H    3.321573   3.760759   2.202989   2.801975   2.389390
     9  C    2.423099   2.719597   2.437000   3.363771   2.961862
    10  H    2.973757   2.899248   3.177035   3.922192   3.902917
    11  H    3.321891   3.761582   3.214868   4.205577   3.449712
    12  C    1.468986   2.030296   2.295223   3.263345   2.674276
    13  H    2.118301   2.319021   3.262539   4.116801   3.714180
    14  H    2.081258   2.911605   2.674347   3.715138   2.593023
                    6          7          8          9         10
     6  C    0.000000
     7  H    1.094728   0.000000
     8  H    1.093668   1.760634   0.000000
     9  C    1.547390   2.189151   2.211687   0.000000
    10  H    2.189057   2.322790   2.940346   1.094255   0.000000
    11  H    2.212049   2.941054   2.388102   1.094514   1.761103
    12  C    2.437656   3.177673   3.215306   1.545886   2.182598
    13  H    3.363467   3.921886   4.204948   2.223350   2.412240
    14  H    2.962773   3.904061   3.450634   2.182829   3.035577
                   11         12         13         14
    11  H    0.000000
    12  C    2.204077   0.000000
    13  H    2.802626   1.093918   0.000000
    14  H    2.390271   1.095960   1.767314   0.000000
 Stoichiometry    C4H9N
 Framework group  C1[X(C4H9N)]
 Deg. of freedom    36
 Full point group                 C1      NOp   1
 Largest Abelian subgroup         C1      NOp   1
 Largest concise Abelian subgroup C1      NOp   1
                         Standard orientation:                         
 ---------------------------------------------------------------------
 Center     Atomic      Atomic             Coordinates (Angstroms)
 Number     Number       Type             X           Y           Z
 ---------------------------------------------------------------------
      1          7           0       -0.009754   -1.267896   -0.216048
      2          1           0       -0.009609   -1.307741   -1.237979
      3          6           0        1.144047   -0.459296    0.201285
      4          1           0        2.052841   -0.790293   -0.312042
      5          1           0        1.291687   -0.622098    1.274281
      6          6           0        0.781546    1.017994   -0.071425
      7          1           0        1.171547    1.332796   -1.044681
      8          1           0        1.207027    1.690375    0.678894
      9          6           0       -0.765800    1.029688   -0.071443
     10          1           0       -1.151178    1.350244   -1.044131
     11          1           0       -1.181004    1.708768    0.679833
     12          6           0       -1.151114   -0.442432    0.200878
     13          1           0       -2.063843   -0.759288   -0.312137
     14          1           0       -1.301266   -0.603214    1.274532
 ---------------------------------------------------------------------
 Rotational constants (GHZ):           6.8866106           6.6914801           3.9136725
 Leave Link  202 at Wed Mar 31 17:05:53 2021, MaxMem=   134217728 cpu:               0.0 elap:               0.1
 (Enter /home1/apps/gaussian/16rA.03/g16/l301.exe)
 Standard basis: 6-31G(d) (6D, 7F)
 Ernie: Thresh=  0.10000D-02 Tol=  0.10000D-05 Strict=F.
 There are    93 symmetry adapted cartesian basis functions of A   symmetry.
 There are    93 symmetry adapted basis functions of A   symmetry.
    93 basis functions,   176 primitive gaussians,    93 cartesian basis functions
    20 alpha electrons       20 beta electrons
       nuclear repulsion energy       190.0136865944 Hartrees.
 IExCor=    0 DFT=F Ex=HF Corr=None ExCW=0 ScaHFX=  1.000000
 ScaDFX=  1.000000  1.000000  1.000000  1.000000 ScalE2=  1.000000  1.000000
 IRadAn=      5 IRanWt=     -1 IRanGd=            0 ICorTp=0 IEmpDi=  4
 NAtoms=   14 NActive=   14 NUniq=   14 SFac= 1.00D+00 NAtFMM=   60 NAOKFM=F Big=F
 Integral buffers will be    131072 words long.
 Raffenetti 1 integral format.
 Two-electron integral symmetry is turned on.
 Leave Link  301 at Wed Mar 31 17:05:53 2021, MaxMem=   134217728 cpu:               0.1 elap:               0.1
 (Enter /home1/apps/gaussian/16rA.03/g16/l302.exe)
 NPDir=0 NMtPBC=     1 NCelOv=     1 NCel=       1 NClECP=     1 NCelD=      1
         NCelK=      1 NCelE2=     1 NClLst=     1 CellRange=     0.0.
 One-electron integrals computed using PRISM.
 One-electron integral symmetry used in STVInt
 NBasis=    93 RedAO= T EigKep=  3.15D-03  NBF=    93
 NBsUse=    93 1.00D-06 EigRej= -1.00D+00 NBFU=    93
 Leave Link  302 at Wed Mar 31 17:05:55 2021, MaxMem=   134217728 cpu:               0.3 elap:               1.4
 (Enter /home1/apps/gaussian/16rA.03/g16/l303.exe)
 DipDrv:  MaxL=1.
 Leave Link  303 at Wed Mar 31 17:05:55 2021, MaxMem=   134217728 cpu:               0.1 elap:               0.1
 (Enter /home1/apps/gaussian/16rA.03/g16/l401.exe)
 ExpMin= 1.61D-01 ExpMax= 4.17D+03 ExpMxC= 6.27D+02 IAcc=3 IRadAn=         5 AccDes= 0.00D+00
 Harris functional with IExCor=  205 and IRadAn=       5 diagonalized for initial guess.
 HarFok:  IExCor=  205 AccDes= 0.00D+00 IRadAn=         5 IDoV= 1 UseB2=F ITyADJ=14
 ICtDFT=  3500011 ScaDFX=  1.000000  1.000000  1.000000  1.000000
 FoFCou: FMM=F IPFlag=           0 FMFlag=      100000 FMFlg1=           0
         NFxFlg=           0 DoJE=T BraDBF=F KetDBF=T FulRan=T
         wScrn=  0.000000 ICntrl=       500 IOpCl=  0 I1Cent=   200000004 NGrid=           0
         NMat0=    1 NMatS0=      1 NMatT0=    0 NMatD0=    1 NMtDS0=    0 NMtDT0=    0
 Petite list used in FoFCou.
 Harris En= -211.589006145003    
 JPrj=0 DoOrth=F DoCkMO=F.
 Leave Link  401 at Wed Mar 31 17:06:03 2021, MaxMem=   134217728 cpu:               8.1 elap:               8.2
 (Enter /home1/apps/gaussian/16rA.03/g16/l502.exe)
 Keep R1 ints in memory in canonical form, NReq=10436288.
 FoFCou: FMM=F IPFlag=           0 FMFlag=           0 FMFlg1=           0
         NFxFlg=           0 DoJE=F BraDBF=F KetDBF=F FulRan=T
         wScrn=  0.000000 ICntrl=       600 IOpCl=  0 I1Cent=           0 NGrid=           0
         NMat0=    1 NMatS0=   4371 NMatT0=    0 NMatD0=    1 NMtDS0=    0 NMtDT0=    0
 Symmetry not used in FoFCou.
 Two-electron integral symmetry not used.
 Closed shell SCF:
 Using DIIS extrapolation, IDIIS=  1040.
 NGot=   134217728 LenX=   124643571 LenY=   124634481
 Requested convergence on RMS density matrix=1.00D-08 within 128 cycles.
 Requested convergence on MAX density matrix=1.00D-06.
 Requested convergence on             energy=1.00D-06.
 No special actions if energy rises.

 Cycle   1  Pass 1  IDiag  1:
 E= -210.882459977928    
 DIIS: error= 6.02D-02 at cycle   1 NSaved=   1.
 NSaved= 1 IEnMin= 1 EnMin= -210.882459977928     IErMin= 1 ErrMin= 6.02D-02
 ErrMax= 6.02D-02  0.00D+00 EMaxC= 1.00D-01 BMatC= 3.72D-01 BMatP= 3.72D-01
 IDIUse=3 WtCom= 3.98D-01 WtEn= 6.02D-01
 Coeff-Com:  0.100D+01
 Coeff-En:   0.100D+01
 Coeff:      0.100D+01
 Gap=     0.554 Goal=   None    Shift=    0.000
 GapD=    0.554 DampG=2.000 DampE=0.500 DampFc=1.0000 IDamp=-1.
 RMSDP=6.81D-03 MaxDP=1.07D-01              OVMax= 1.18D-01

 Cycle   2  Pass 1  IDiag  1:
 E= -211.095041302338     Delta-E=       -0.212581324411 Rises=F Damp=F
 DIIS: error= 1.99D-02 at cycle   2 NSaved=   2.
 NSaved= 2 IEnMin= 2 EnMin= -211.095041302338     IErMin= 2 ErrMin= 1.99D-02
 ErrMax= 1.99D-02  0.00D+00 EMaxC= 1.00D-01 BMatC= 5.35D-02 BMatP= 3.72D-01
 IDIUse=3 WtCom= 8.01D-01 WtEn= 1.99D-01
 Coeff-Com:  0.209D+00 0.791D+00
 Coeff-En:   0.000D+00 0.100D+01
 Coeff:      0.167D+00 0.833D+00
 Gap=     0.609 Goal=   None    Shift=    0.000
 RMSDP=2.97D-03 MaxDP=3.10D-02 DE=-2.13D-01 OVMax= 4.85D-02

 Cycle   3  Pass 1  IDiag  1:
 E= -211.139235526467     Delta-E=       -0.044194224129 Rises=F Damp=F
 DIIS: error= 5.68D-03 at cycle   3 NSaved=   3.
 NSaved= 3 IEnMin= 3 EnMin= -211.139235526467     IErMin= 3 ErrMin= 5.68D-03
 ErrMax= 5.68D-03  0.00D+00 EMaxC= 1.00D-01 BMatC= 4.04D-03 BMatP= 5.35D-02
 IDIUse=3 WtCom= 9.43D-01 WtEn= 5.68D-02
 Coeff-Com: -0.225D-01 0.184D+00 0.839D+00
 Coeff-En:   0.000D+00 0.000D+00 0.100D+01
 Coeff:     -0.213D-01 0.174D+00 0.848D+00
 Gap=     0.583 Goal=   None    Shift=    0.000
 RMSDP=5.91D-04 MaxDP=8.53D-03 DE=-4.42D-02 OVMax= 1.18D-02

 Cycle   4  Pass 1  IDiag  1:
 E= -211.143138024531     Delta-E=       -0.003902498063 Rises=F Damp=F
 DIIS: error= 9.89D-04 at cycle   4 NSaved=   4.
 NSaved= 4 IEnMin= 4 EnMin= -211.143138024531     IErMin= 4 ErrMin= 9.89D-04
 ErrMax= 9.89D-04  0.00D+00 EMaxC= 1.00D-01 BMatC= 3.78D-05 BMatP= 4.04D-03
 IDIUse=3 WtCom= 9.90D-01 WtEn= 9.89D-03
 Coeff-Com: -0.194D-02-0.166D-01 0.514D-02 0.101D+01
 Coeff-En:   0.000D+00 0.000D+00 0.000D+00 0.100D+01
 Coeff:     -0.192D-02-0.165D-01 0.509D-02 0.101D+01
 Gap=     0.586 Goal=   None    Shift=    0.000
 RMSDP=1.20D-04 MaxDP=1.33D-03 DE=-3.90D-03 OVMax= 2.03D-03

 Cycle   5  Pass 1  IDiag  1:
 E= -211.143193911780     Delta-E=       -0.000055887249 Rises=F Damp=F
 DIIS: error= 2.25D-04 at cycle   5 NSaved=   5.
 NSaved= 5 IEnMin= 5 EnMin= -211.143193911780     IErMin= 5 ErrMin= 2.25D-04
 ErrMax= 2.25D-04  0.00D+00 EMaxC= 1.00D-01 BMatC= 3.64D-06 BMatP= 3.78D-05
 IDIUse=3 WtCom= 9.98D-01 WtEn= 2.25D-03
 Coeff-Com:  0.110D-02-0.115D-01-0.452D-01 0.435D-01 0.101D+01
 Coeff-En:   0.000D+00 0.000D+00 0.000D+00 0.000D+00 0.100D+01
 Coeff:      0.110D-02-0.115D-01-0.451D-01 0.434D-01 0.101D+01
 Gap=     0.585 Goal=   None    Shift=    0.000
 RMSDP=3.61D-05 MaxDP=6.29D-04 DE=-5.59D-05 OVMax= 7.04D-04

 Cycle   6  Pass 1  IDiag  1:
 E= -211.143199489172     Delta-E=       -0.000005577392 Rises=F Damp=F
 DIIS: error= 6.28D-05 at cycle   6 NSaved=   6.
 NSaved= 6 IEnMin= 6 EnMin= -211.143199489172     IErMin= 6 ErrMin= 6.28D-05
 ErrMax= 6.28D-05  0.00D+00 EMaxC= 1.00D-01 BMatC= 4.83D-07 BMatP= 3.64D-06
 IDIUse=1 WtCom= 1.00D+00 WtEn= 0.00D+00
 Coeff-Com:  0.497D-03-0.196D-02-0.133D-01-0.841D-01 0.284D+00 0.814D+00
 Coeff:      0.497D-03-0.196D-02-0.133D-01-0.841D-01 0.284D+00 0.814D+00
 Gap=     0.586 Goal=   None    Shift=    0.000
 RMSDP=1.13D-05 MaxDP=2.11D-04 DE=-5.58D-06 OVMax= 2.83D-04

 Cycle   7  Pass 1  IDiag  1:
 E= -211.143200074918     Delta-E=       -0.000000585746 Rises=F Damp=F
 DIIS: error= 1.08D-05 at cycle   7 NSaved=   7.
 NSaved= 7 IEnMin= 7 EnMin= -211.143200074918     IErMin= 7 ErrMin= 1.08D-05
 ErrMax= 1.08D-05  0.00D+00 EMaxC= 1.00D-01 BMatC= 7.33D-09 BMatP= 4.83D-07
 IDIUse=1 WtCom= 1.00D+00 WtEn= 0.00D+00
 Coeff-Com: -0.147D-03 0.828D-03 0.485D-02 0.162D-01-0.968D-01-0.209D+00
 Coeff-Com:  0.128D+01
 Coeff:     -0.147D-03 0.828D-03 0.485D-02 0.162D-01-0.968D-01-0.209D+00
 Coeff:      0.128D+01
 Gap=     0.586 Goal=   None    Shift=    0.000
 RMSDP=3.12D-06 MaxDP=4.97D-05 DE=-5.86D-07 OVMax= 8.97D-05

 Cycle   8  Pass 1  IDiag  1:
 E= -211.143200096416     Delta-E=       -0.000000021498 Rises=F Damp=F
 DIIS: error= 3.66D-06 at cycle   8 NSaved=   8.
 NSaved= 8 IEnMin= 8 EnMin= -211.143200096416     IErMin= 8 ErrMin= 3.66D-06
 ErrMax= 3.66D-06  0.00D+00 EMaxC= 1.00D-01 BMatC= 4.79D-10 BMatP= 7.33D-09
 IDIUse=1 WtCom= 1.00D+00 WtEn= 0.00D+00
 Coeff-Com: -0.273D-04 0.120D-03 0.775D-03 0.374D-02-0.140D-01-0.396D-01
 Coeff-Com:  0.381D-01 0.101D+01
 Coeff:     -0.273D-04 0.120D-03 0.775D-03 0.374D-02-0.140D-01-0.396D-01
 Coeff:      0.381D-01 0.101D+01
 Gap=     0.586 Goal=   None    Shift=    0.000
 RMSDP=6.44D-07 MaxDP=1.29D-05 DE=-2.15D-08 OVMax= 2.07D-05

 Cycle   9  Pass 1  IDiag  1:
 E= -211.143200097594     Delta-E=       -0.000000001178 Rises=F Damp=F
 DIIS: error= 1.60D-06 at cycle   9 NSaved=   9.
 NSaved= 9 IEnMin= 9 EnMin= -211.143200097594     IErMin= 9 ErrMin= 1.60D-06
 ErrMax= 1.60D-06  0.00D+00 EMaxC= 1.00D-01 BMatC= 6.60D-11 BMatP= 4.79D-10
 IDIUse=1 WtCom= 1.00D+00 WtEn= 0.00D+00
 Coeff-Com:  0.197D-04-0.115D-03-0.673D-03-0.245D-02 0.142D-01 0.299D-01
 Coeff-Com: -0.185D+00 0.422D-01 0.110D+01
 Coeff:      0.197D-04-0.115D-03-0.673D-03-0.245D-02 0.142D-01 0.299D-01
 Coeff:     -0.185D+00 0.422D-01 0.110D+01
 Gap=     0.586 Goal=   None    Shift=    0.000
 RMSDP=2.98D-07 MaxDP=6.99D-06 DE=-1.18D-09 OVMax= 1.02D-05

 Cycle  10  Pass 1  IDiag  1:
 E= -211.143200097783     Delta-E=       -0.000000000189 Rises=F Damp=F
 DIIS: error= 4.19D-07 at cycle  10 NSaved=  10.
 NSaved=10 IEnMin=10 EnMin= -211.143200097783     IErMin=10 ErrMin= 4.19D-07
 ErrMax= 4.19D-07  0.00D+00 EMaxC= 1.00D-01 BMatC= 3.17D-12 BMatP= 6.60D-11
 IDIUse=1 WtCom= 1.00D+00 WtEn= 0.00D+00
 Coeff-Com: -0.208D-05 0.145D-04 0.816D-04 0.212D-03-0.178D-02-0.346D-02
 Coeff-Com:  0.322D-01-0.639D-01-0.210D+00 0.125D+01
 Coeff:     -0.208D-05 0.145D-04 0.816D-04 0.212D-03-0.178D-02-0.346D-02
 Coeff:      0.322D-01-0.639D-01-0.210D+00 0.125D+01
 Gap=     0.586 Goal=   None    Shift=    0.000
 RMSDP=7.14D-08 MaxDP=1.94D-06 DE=-1.89D-10 OVMax= 2.65D-06

 Cycle  11  Pass 1  IDiag  1:
 E= -211.143200097794     Delta-E=       -0.000000000011 Rises=F Damp=F
 DIIS: error= 9.23D-08 at cycle  11 NSaved=  11.
 NSaved=11 IEnMin=11 EnMin= -211.143200097794     IErMin=11 ErrMin= 9.23D-08
 ErrMax= 9.23D-08  0.00D+00 EMaxC= 1.00D-01 BMatC= 2.18D-13 BMatP= 3.17D-12
 IDIUse=1 WtCom= 1.00D+00 WtEn= 0.00D+00
 Coeff-Com: -0.129D-05 0.753D-05 0.442D-04 0.169D-03-0.943D-03-0.203D-02
 Coeff-Com:  0.120D-01 0.875D-03-0.753D-01-0.450D-01 0.111D+01
 Coeff:     -0.129D-05 0.753D-05 0.442D-04 0.169D-03-0.943D-03-0.203D-02
 Coeff:      0.120D-01 0.875D-03-0.753D-01-0.450D-01 0.111D+01
 Gap=     0.586 Goal=   None    Shift=    0.000
 RMSDP=1.67D-08 MaxDP=4.35D-07 DE=-1.13D-11 OVMax= 5.78D-07

 Cycle  12  Pass 1  IDiag  1:
 E= -211.143200097795     Delta-E=       -0.000000000000 Rises=F Damp=F
 DIIS: error= 1.72D-08 at cycle  12 NSaved=  12.
 NSaved=12 IEnMin=12 EnMin= -211.143200097795     IErMin=12 ErrMin= 1.72D-08
 ErrMax= 1.72D-08  0.00D+00 EMaxC= 1.00D-01 BMatC= 1.13D-14 BMatP= 2.18D-13
 IDIUse=1 WtCom= 1.00D+00 WtEn= 0.00D+00
 Coeff-Com:  0.282D-06-0.183D-05-0.103D-04-0.310D-04 0.220D-03 0.446D-03
 Coeff-Com: -0.347D-02 0.462D-02 0.212D-01-0.820D-01-0.932D-01 0.115D+01
 Coeff:      0.282D-06-0.183D-05-0.103D-04-0.310D-04 0.220D-03 0.446D-03
 Coeff:     -0.347D-02 0.462D-02 0.212D-01-0.820D-01-0.932D-01 0.115D+01
 Gap=     0.586 Goal=   None    Shift=    0.000
 RMSDP=3.85D-09 MaxDP=8.67D-08 DE=-5.68D-14 OVMax= 1.23D-07

 SCF Done:  E(RHF) =  -211.143200098     A.U. after   12 cycles
            NFock= 12  Conv=0.39D-08     -V/T= 2.0015
 KE= 2.108304137976D+02 PE=-8.720763187392D+02 EE= 2.600890182494D+02
 Leave Link  502 at Wed Mar 31 17:06:06 2021, MaxMem=   134217728 cpu:               2.3 elap:               2.4
 (Enter /home1/apps/gaussian/16rA.03/g16/l601.exe)
 Copying SCF densities to generalized density rwf, IOpCl= 0 IROHF=0.
 SCF density gives NOpUse=  1 NOpAll=  1.

 **********************************************************************

            Population analysis using the SCF density.

 **********************************************************************

 Orbital symmetries:
 BldTbl:  Degeneracy threshold= 1.00D-02
       Occupied  (A) (A) (A) (A) (A) (A) (A) (A) (A) (A) (A) (A)
                 (A) (A) (A) (A) (A) (A) (A) (A)
       Virtual   (A) (A) (A) (A) (A) (A) (A) (A) (A) (A) (A) (A)
                 (A) (A) (A) (A) (A) (A) (A) (A) (A) (A) (A) (A)
                 (A) (A) (A) (A) (A) (A) (A) (A) (A) (A) (A) (A)
                 (A) (A) (A) (A) (A) (A) (A) (A) (A) (A) (A) (A)
                 (A) (A) (A) (A) (A) (A) (A) (A) (A) (A) (A) (A)
                 (A) (A) (A) (A) (A) (A) (A) (A) (A) (A) (A) (A)
                 (A)
 The electronic state is 1-A.
 Alpha  occ. eigenvalues --  -15.54076 -11.24200 -11.24195 -11.21855 -11.21799
 Alpha  occ. eigenvalues --   -1.21663  -1.01921  -0.96899  -0.81410  -0.78334
 Alpha  occ. eigenvalues --   -0.67516  -0.63699  -0.58968  -0.58396  -0.50622
 Alpha  occ. eigenvalues --   -0.49289  -0.47912  -0.47626  -0.45740  -0.37275
 Alpha virt. eigenvalues --    0.21279   0.24725   0.28660   0.29029   0.30117
 Alpha virt. eigenvalues --    0.32558   0.33858   0.33958   0.36392   0.37738
 Alpha virt. eigenvalues --    0.40785   0.41401   0.48517   0.52442   0.72779
 Alpha virt. eigenvalues --    0.76267   0.76616   0.79767   0.80365   0.83842
 Alpha virt. eigenvalues --    0.90478   0.92044   0.92595   0.94963   1.01860
 Alpha virt. eigenvalues --    1.02452   1.09480   1.10988   1.12808   1.13150
 Alpha virt. eigenvalues --    1.15438   1.17173   1.19496   1.20850   1.21106
 Alpha virt. eigenvalues --    1.23722   1.24020   1.24151   1.49539   1.52543
 Alpha virt. eigenvalues --    1.59180   1.59545   1.69288   1.90975   2.00838
 Alpha virt. eigenvalues --    2.08684   2.12260   2.13555   2.19833   2.22442
 Alpha virt. eigenvalues --    2.29045   2.31775   2.35028   2.42288   2.43267
 Alpha virt. eigenvalues --    2.43361   2.51046   2.57266   2.59218   2.71449
 Alpha virt. eigenvalues --    2.73627   2.81719   2.90009   2.95574   2.97825
 Alpha virt. eigenvalues --    2.98905   3.02819   3.24107   4.34967   4.60737
 Alpha virt. eigenvalues --    4.68019   4.86124   5.04389
          Condensed to atoms (all electrons):
               1          2          3          4          5          6
     1  N    7.058662   0.327541   0.294203  -0.033404  -0.047556  -0.084999
     2  H    0.327541   0.433304  -0.042392  -0.005379   0.005680  -0.000687
     3  C    0.294203  -0.042392   4.977886   0.403748   0.406065   0.333688
     4  H   -0.033404  -0.005379   0.403748   0.521240  -0.026325  -0.035555
     5  H   -0.047556   0.005680   0.406065  -0.026325   0.544869  -0.053864
     6  C   -0.084999  -0.000687   0.333688  -0.035555  -0.053864   5.205597
     7  H    0.002637   0.000959  -0.038300  -0.004204   0.003824   0.396024
     8  H    0.004386  -0.000026  -0.032387   0.001335  -0.002463   0.391464
     9  C   -0.085089  -0.000691  -0.061393   0.003840  -0.000390   0.321496
    10  H    0.002649   0.000958   0.003257  -0.000161  -0.000013  -0.038489
    11  H    0.004384  -0.000026   0.002984  -0.000064   0.000166  -0.033459
    12  C    0.294002  -0.042370  -0.094809   0.006117  -0.001884  -0.061284
    13  H   -0.033416  -0.005385   0.006123  -0.000114  -0.000171   0.003829
    14  H   -0.047622   0.005682  -0.001900  -0.000171   0.003456  -0.000382
               7          8          9         10         11         12
     1  N    0.002637   0.004386  -0.085089   0.002649   0.004384   0.294002
     2  H    0.000959  -0.000026  -0.000691   0.000958  -0.000026  -0.042370
     3  C   -0.038300  -0.032387  -0.061393   0.003257   0.002984  -0.094809
     4  H   -0.004204   0.001335   0.003840  -0.000161  -0.000064   0.006117
     5  H    0.003824  -0.002463  -0.000390  -0.000013   0.000166  -0.001884
     6  C    0.396024   0.391464   0.321496  -0.038489  -0.033459  -0.061284
     7  H    0.542616  -0.025836  -0.038527  -0.006280   0.002599   0.003251
     8  H   -0.025836   0.527014  -0.033400   0.002596  -0.003631   0.002974
     9  C   -0.038527  -0.033400   5.205831   0.395992   0.391377   0.333836
    10  H   -0.006280   0.002596   0.395992   0.542443  -0.025801  -0.038327
    11  H    0.002599  -0.003631   0.391377  -0.025801   0.527314  -0.032361
    12  C    0.003251   0.002974   0.333836  -0.038327  -0.032361   4.977646
    13  H   -0.000161  -0.000063  -0.035505  -0.004188   0.001332   0.403827
    14  H   -0.000013   0.000165  -0.053852   0.003822  -0.002460   0.406044
              13         14
     1  N   -0.033416  -0.047622
     2  H   -0.005385   0.005682
     3  C    0.006123  -0.001900
     4  H   -0.000114  -0.000171
     5  H   -0.000171   0.003456
     6  C    0.003829  -0.000382
     7  H   -0.000161  -0.000013
     8  H   -0.000063   0.000165
     9  C   -0.035505  -0.053852
    10  H   -0.004188   0.003822
    11  H    0.001332  -0.002460
    12  C    0.403827   0.406044
    13  H    0.520894  -0.026326
    14  H   -0.026326   0.545162
 Mulliken charges:
               1
     1  N   -0.656379
     2  H    0.322831
     3  C   -0.156772
     4  H    0.169095
     5  H    0.168606
     6  C   -0.343380
     7  H    0.161410
     8  H    0.167872
     9  C   -0.343527
    10  H    0.161542
    11  H    0.167645
    12  C   -0.156662
    13  H    0.169324
    14  H    0.168395
 Sum of Mulliken charges =  -0.00000
 Mulliken charges with hydrogens summed into heavy atoms:
               1
     1  N   -0.333548
     3  C    0.180929
     6  C   -0.014098
     9  C   -0.014340
    12  C    0.181057
 DipInt: DoE/N= T F RetVal/Mat= T F Init=T NMatP=  1 IDeriv=0 Min/MaxMlt=  0  4
 Entering OneElI...
 OneElI was handed   134193553 working-precision words.
 Multipole integrals L=0 to 4 MinM= 0 MaxM= 0.
 Requested accuracy = 0.1000D-12
 ShPair: Thresh= 1.00D-13 NBox=     0 BxSize= 0.00D+00 RnKept= 7.95D+00
         NSMCal=                  741 NSMKep=                 739
 PrmmSu-InSpLW:  IPartL=    0 NPrtUS=    1 NPrtUL=    1 DoSpLW=F IThBeg=    0 IThEnd=    0 NThAct=    1.
 PrsmSu:  NPrtUS=   1 ThrOK=F IAlg=1 NPAlg=1 LenDen=           0 ISkipM=0 DoSpLW=F IThBeg=    0 IThEnd=    0.
 Prism:   IPart=     0 DynPar=F LinDyn=F Incr=           7.
 PRISM was handed   134124930 working-precision words and   739 shell-pairs
 IPart=  0 NShTot=         739 NBatch=          32 AvBLen=        23.1
 PrsmSu-ThDecC:  IPartSL=    0    0 NPrtUSL=    1    1 IThBeg=    0 IThEnd=    0 CPU=   -1 GPU=   -1 NThAct=    1.
 PrSmSu:  NxtVal=              8.
 Electronic moments (au):
        -40.00000000          0.00424661          0.55081090         -0.26390360
       -167.55014441       -168.21834203        -54.52702717         -0.03144141
          0.01051254          1.07161706         -0.13034870        -47.08620807
         -7.33074329         -0.26992988         -3.67975174        -24.51093318
         -0.01261240         -1.77671608         26.33820207          0.39748709
      -1550.35462960      -1411.19149844       -308.42074550         -1.65537606
          1.09190692          2.48987726        -61.77282036          0.35612880
         33.54017037       -584.13954761       -271.87547708       -263.21349585
         44.04639983         -1.03150745          0.03568117
 Electronic spatial extent (au):  <R**2>=            390.2955
 DipInt: DoE/N= F T RetVal/Mat= T F Init=T NMatP=  1 IDeriv=0 Min/MaxMlt=  0  4
 Nuclear    moments (au):
         40.00000000         -0.00000000         -0.00000000          0.00000000
        144.17302061        140.38366703         31.97327585          0.00000000
          0.00000000          0.00000000          0.05205791         57.57846790
          3.72980830          0.39990937          0.46860113         23.10508570
         -0.01060594         -1.48530363        -28.40119902         -0.40086638
        948.48376752        750.79301822        133.69882348          1.67440681
         -0.92603561         -2.97829197         77.04089137         -0.26553629
        -24.96343197        384.89539891        143.08044922        143.31665109
        -38.51854231          1.07379788          0.01580788
 Total      moments (au):
         -0.00000000          0.00424661          0.55081090         -0.26390360
        -23.37712380        -27.83467500        -22.55375132         -0.03144141
          0.01051254          1.07161706         -0.07829079         10.49225983
         -3.60093499          0.12997950         -3.21115061         -1.40584749
         -0.02321834         -3.26201971         -2.06299695         -0.00337929
       -601.87086208       -660.39848023       -174.72192203          0.01903075
          0.16587130         -0.48841471         15.26807101          0.09059251
          8.57673839       -199.24414869       -128.79502785       -119.89684476
          5.52785752          0.04229042          0.05148905
 Traceless Quadrup. (au):
          1.21139290         -3.24615829          2.03476539         -0.03144141
          0.01051254          1.07161706
 Charge=             -0.0000 electrons
 Dipole moment (field-independent basis, Debye):
    X=              0.0108    Y=              1.4000    Z=             -0.6708  Tot=              1.5525
 Quadrupole moment (field-independent basis, Debye-Ang):
   XX=            -31.4430   YY=            -37.4386   ZZ=            -30.3356
   XY=             -0.0423   XZ=              0.0141   YZ=              1.4414
 Traceless Quadrupole moment (field-independent basis, Debye-Ang):
   XX=              1.6294   YY=             -4.3662   ZZ=              2.7368
   XY=             -0.0423   XZ=              0.0141   YZ=              1.4414
 Octapole moment (field-independent basis, Debye-Ang**2):
  XXX=             -0.0557  YYY=              7.4680  ZZZ=             -2.5630  XYY=              0.0925
  XXY=             -2.2856  XXZ=             -1.0006  XZZ=             -0.0165  YZZ=             -2.3218
  YYZ=             -1.4684  XYZ=             -0.0024
 Hexadecapole moment (field-independent basis, Debye-Ang**3):
 XXXX=           -226.6934 YYYY=           -248.7377 ZZZZ=            -65.8087 XXXY=              0.0072
 XXXZ=              0.0625 YYYX=             -0.1840 YYYZ=              5.7507 ZZZX=              0.0341
 ZZZY=              3.2304 XXYY=            -75.0449 XXZZ=            -48.5104 YYZZ=            -45.1589
 XXYZ=              2.0821 YYXZ=              0.0159 ZZXY=              0.0194
 N-N= 1.900136865944D+02 E-N=-8.720763185686D+02  KE= 2.108304137976D+02
 Entering OneElI...
 OneElI was handed   134197467 working-precision words.
 Calculate electrostatic properties
    NBasis =    93  MinDer = 0  MaxDer = 0
    NGrid  =    14  NMatD  =   1
 Requested accuracy = 0.1000D-12
 ShPair: Thresh= 1.00D-13 NBox=     0 BxSize= 0.00D+00 RnKept= 7.95D+00
         NSMCal=                  741 NSMKep=                 736
 PrmmSu-InSpLW:  IPartL=    0 NPrtUS=    1 NPrtUL=    1 DoSpLW=F IThBeg=    0 IThEnd=    0 NThAct=    1.
 PrsmSu:  NPrtUS=   1 ThrOK=F IAlg=1 NPAlg=1 LenDen=           0 ISkipM=0 DoSpLW=F IThBeg=    0 IThEnd=    0.
 Prism:   IPart=     0 DynPar=F LinDyn=F Incr=         103.
 PRISM was handed   134131328 working-precision words and   736 shell-pairs
 IPart=  0 NShTot=       10304 NBatch=         736 AvBLen=        14.0
 PrsmSu-ThDecC:  IPartSL=    0    0 NPrtUSL=    1    1 IThBeg=    0 IThEnd=    0 CPU=   -1 GPU=   -1 NThAct=    1.
 PrSmSu:  NxtVal=            104.
 --------------------------------------------------------
       Center         ----      EFG at Nuclei      ----
                      3XX-RR        3YY-RR        3ZZ-RR
 --------------------------------------------------------
     1   Atom       -0.572517      0.826361     -0.253844
     2   Atom        0.160039      0.212000     -0.372040
     3   Atom       -0.054141     -0.032722      0.086863
     4   Atom       -0.158509      0.108279      0.050230
     5   Atom        0.135208      0.138609     -0.273818
     6   Atom       -0.033718      0.011219      0.022499
     7   Atom        0.091547      0.112969     -0.204516
     8   Atom        0.081445     -0.018948     -0.062497
     9   Atom       -0.034268      0.011534      0.022734
    10   Atom        0.093033      0.111925     -0.204958
    11   Atom        0.084289     -0.021896     -0.062393
    12   Atom       -0.049827     -0.036434      0.086260
    13   Atom       -0.162587      0.112120      0.050467
    14   Atom        0.134463      0.138255     -0.272718
 --------------------------------------------------------
                        XY            XZ            YZ
 --------------------------------------------------------
     1   Atom        0.010176     -0.004475     -0.589303
     2   Atom        0.000397     -0.000001     -0.028545
     3   Atom       -0.111795     -0.056773     -0.042236
     4   Atom        0.105968      0.171244     -0.065464
     5   Atom        0.005946     -0.059176      0.061151
     6   Atom        0.022823     -0.002648      0.002712
     7   Atom       -0.043693      0.140384      0.112920
     8   Atom       -0.105486     -0.120238     -0.189650
     9   Atom       -0.022161      0.003147      0.002091
    10   Atom        0.044168     -0.139134      0.115365
    11   Atom        0.103305      0.116750     -0.190569
    12   Atom        0.112021      0.056651     -0.042595
    13   Atom       -0.102476     -0.173323     -0.063243
    14   Atom       -0.005876      0.059866      0.060042
 --------------------------------------------------------


 ---------------------------------------------------------------------------------
              Nuclear Quadrupole Coupling Constant in Principal Axis System
 ---------------------------------------------------------------------------------

       Atom             a.u.   MegaHertz   Gauss  10(-4) cm-1        Axes

              Baa    -0.5726     2.750     0.981     0.917  1.0000 -0.0061  0.0027
     1 N(14)  Bbb    -0.5131     2.464     0.879     0.822  0.0000  0.4027  0.9153
              Bcc     1.0857    -5.214    -1.861    -1.739  0.0067  0.9153 -0.4027
 

 ---------------------------------------------------------------------------------

 No NMR shielding tensors so no spin-rotation constants.
 Leave Link  601 at Wed Mar 31 17:06:07 2021, MaxMem=   134217728 cpu:               0.5 elap:               0.5
 (Enter /home1/apps/gaussian/16rA.03/g16/l602.exe)
 FitSet:  NAtFit=    14 NAtPot=    14 NAtFrz=     0 MDM=    18 TotChg=   0.00000
 Merz-Kollman atomic radii used.
 Atom Element Radius
    1     7    1.50
    2     1    1.20
    3     6    1.50
    4     1    1.20
    5     1    1.20
    6     6    1.50
    7     1    1.20
    8     1    1.20
    9     6    1.50
   10     1    1.20
   11     1    1.20
   12     6    1.50
   13     1    1.20
   14     1    1.20
 Generate VDW surfaces: Layer=10 Dens=17 Start= 1.400 Inc= 0.126

 **********************************************************************

            Electrostatic Properties Using The SCF Density

 **********************************************************************

       Atomic Center    1 is at  -0.009754 -1.267896 -0.216048
       Atomic Center    2 is at  -0.009609 -1.307741 -1.237979
       Atomic Center    3 is at   1.144047 -0.459296  0.201285
       Atomic Center    4 is at   2.052841 -0.790293 -0.312042
       Atomic Center    5 is at   1.291687 -0.622098  1.274281
       Atomic Center    6 is at   0.781546  1.017994 -0.071425
       Atomic Center    7 is at   1.171547  1.332796 -1.044681
       Atomic Center    8 is at   1.207027  1.690375  0.678894
       Atomic Center    9 is at  -0.765800  1.029688 -0.071443
       Atomic Center   10 is at  -1.151178  1.350244 -1.044131
       Atomic Center   11 is at  -1.181004  1.708768  0.679833
       Atomic Center   12 is at  -1.151114 -0.442432  0.200878
       Atomic Center   13 is at  -2.063843 -0.759288 -0.312137
       Atomic Center   14 is at  -1.301266 -0.603214  1.274532
      ESP Fit Center   15 is at  -0.009754 -1.752189  1.827346
      ESP Fit Center   16 is at  -0.134475 -1.975227  1.757306
      ESP Fit Center   17 is at   0.114968 -1.975227  1.757306
      ESP Fit Center   18 is at  -0.480993 -2.084106  1.660580
      ESP Fit Center   19 is at  -0.253685 -2.178260  1.660580
      ESP Fit Center   20 is at  -0.009754 -2.210374  1.660580
      ESP Fit Center   21 is at   0.234177 -2.178260  1.660580
      ESP Fit Center   22 is at   0.461485 -2.084106  1.660580
      ESP Fit Center   23 is at  -0.657346 -2.223023  1.538476
      ESP Fit Center   24 is at  -0.436882 -2.339906  1.538476
      ESP Fit Center   25 is at  -0.196445 -2.406663  1.538476
      ESP Fit Center   26 is at   0.052721 -2.420173  1.538476
      ESP Fit Center   27 is at   0.298966 -2.379803  1.538476
      ESP Fit Center   28 is at   0.530775 -2.287442  1.538476
      ESP Fit Center   29 is at  -0.823223 -2.345103  1.392645
      ESP Fit Center   30 is at  -0.611436 -2.476236  1.392645
      ESP Fit Center   31 is at  -0.379159 -2.566220  1.392645
      ESP Fit Center   32 is at  -0.134303 -2.611992  1.392645
      ESP Fit Center   33 is at   0.114795 -2.611992  1.392645
      ESP Fit Center   34 is at   0.359651 -2.566220  1.392645
      ESP Fit Center   35 is at   0.591928 -2.476236  1.392645
      ESP Fit Center   36 is at   0.803715 -2.345103  1.392645
      ESP Fit Center   37 is at  -1.153093 -2.280806  1.225059
      ESP Fit Center   38 is at  -0.975804 -2.451093  1.225059
      ESP Fit Center   39 is at  -0.773496 -2.590737  1.225059
      ESP Fit Center   40 is at  -0.551407 -2.696119  1.225059
      ESP Fit Center   41 is at  -0.315290 -2.764511  1.225059
      ESP Fit Center   42 is at  -0.071259 -2.794142  1.225059
      ESP Fit Center   43 is at   0.174364 -2.784244  1.225059
      ESP Fit Center   44 is at   0.415219 -2.735073  1.225059
      ESP Fit Center   45 is at   0.645067 -2.647903  1.225059
      ESP Fit Center   46 is at   0.857956 -2.524991  1.225059
      ESP Fit Center   47 is at   1.048372 -2.369522  1.225059
      ESP Fit Center   48 is at  -1.178893 -2.480544  1.037985
      ESP Fit Center   49 is at  -0.989871 -2.637849  1.037985
      ESP Fit Center   50 is at  -0.779960 -2.765956  1.037985
      ESP Fit Center   51 is at  -0.553633 -2.862135  1.037985
      ESP Fit Center   52 is at  -0.315714 -2.924335  1.037985
      ESP Fit Center   53 is at  -0.071274 -2.951231  1.037985
      ESP Fit Center   54 is at   0.174477 -2.942250  1.037985
      ESP Fit Center   55 is at   0.416302 -2.897582  1.037985
      ESP Fit Center   56 is at   0.649046 -2.818181  1.037985
      ESP Fit Center   57 is at   0.867749 -2.705738  1.037985
      ESP Fit Center   58 is at   1.067749 -2.562650  1.037985
      ESP Fit Center   59 is at   1.244784 -2.391967  1.037985
      ESP Fit Center   60 is at  -1.251081 -2.597033  0.833952
      ESP Fit Center   61 is at  -1.058535 -2.753681  0.833952
      ESP Fit Center   62 is at  -0.846453 -2.882652  0.833952
      ESP Fit Center   63 is at  -0.618784 -2.981542  0.833952
      ESP Fit Center   64 is at  -0.379770 -3.048511  0.833952
      ESP Fit Center   65 is at  -0.133863 -3.082310  0.833952
      ESP Fit Center   66 is at   0.114355 -3.082310  0.833952
      ESP Fit Center   67 is at   0.360262 -3.048511  0.833952
      ESP Fit Center   68 is at   0.599276 -2.981542  0.833952
      ESP Fit Center   69 is at   0.826945 -2.882652  0.833952
      ESP Fit Center   70 is at   1.039028 -2.753681  0.833952
      ESP Fit Center   71 is at   1.231574 -2.597033  0.833952
      ESP Fit Center   72 is at  -1.478015 -2.517845  0.615719
      ESP Fit Center   73 is at  -1.306121 -2.695340  0.615719
      ESP Fit Center   74 is at  -1.112940 -2.849396  0.615719
      ESP Fit Center   75 is at  -0.901645 -2.977485  0.615719
      ESP Fit Center   76 is at  -0.675705 -3.077501  0.615719
      ESP Fit Center   77 is at  -0.438831 -3.147805  0.615719
      ESP Fit Center   78 is at  -0.194911 -3.187240  0.615719
      ESP Fit Center   79 is at   0.052050 -3.195159  0.615719
      ESP Fit Center   80 is at   0.297995 -3.171433  0.615719
      ESP Fit Center   81 is at   0.538888 -3.116451  0.615719
      ESP Fit Center   82 is at   0.770771 -3.031116  0.615719
      ESP Fit Center   83 is at   0.989839 -2.916828  0.615719
      ESP Fit Center   84 is at   1.192493 -2.775466  0.615719
      ESP Fit Center   85 is at   1.375406 -2.609349  0.615719
      ESP Fit Center   86 is at  -1.577091 -2.529128  0.386239
      ESP Fit Center   87 is at  -1.410221 -2.712176  0.386239
      ESP Fit Center   88 is at  -1.222121 -2.873330  0.386239
      ESP Fit Center   89 is at  -1.015643 -3.010147  0.386239
      ESP Fit Center   90 is at  -0.793916 -3.120554  0.386239
      ESP Fit Center   91 is at  -0.560303 -3.202876  0.386239
      ESP Fit Center   92 is at  -0.318344 -3.255866  0.386239
      ESP Fit Center   93 is at  -0.071707 -3.278720  0.386239
      ESP Fit Center   94 is at   0.175870 -3.271092  0.386239
      ESP Fit Center   95 is at   0.420632 -3.233098  0.386239
      ESP Fit Center   96 is at   0.658870 -3.165313  0.386239
      ESP Fit Center   97 is at   0.886973 -3.068766  0.386239
      ESP Fit Center   98 is at   1.101482 -2.944919  0.386239
      ESP Fit Center   99 is at   1.299146 -2.795650  0.386239
      ESP Fit Center  100 is at   1.476968 -2.623222  0.386239
      ESP Fit Center  101 is at  -1.653589 -2.522817  0.148613
      ESP Fit Center  102 is at  -1.493628 -2.708431  0.148613
      ESP Fit Center  103 is at  -1.312836 -2.873822  0.148613
      ESP Fit Center  104 is at  -1.113752 -3.016670  0.148613
      ESP Fit Center  105 is at  -0.899170 -3.134969  0.148613
      ESP Fit Center  106 is at  -0.672103 -3.227058  0.148613
      ESP Fit Center  107 is at  -0.435737 -3.291645  0.148613
      ESP Fit Center  108 is at  -0.193392 -3.327823  0.148613
      ESP Fit Center  109 is at   0.051531 -3.335084  0.148613
      ESP Fit Center  110 is at   0.295593 -3.313326  0.148613
      ESP Fit Center  111 is at   0.535370 -3.262855  0.148613
      ESP Fit Center  112 is at   0.767494 -3.184379  0.148613
      ESP Fit Center  113 is at   0.988707 -3.079000  0.148613
      ESP Fit Center  114 is at   1.195904 -2.948197  0.148613
      ESP Fit Center  115 is at   1.386176 -2.793806  0.148613
      ESP Fit Center  116 is at   1.556852 -2.617995  0.148613
      ESP Fit Center  117 is at  -1.676124 -2.540021 -0.093944
      ESP Fit Center  118 is at  -1.513970 -2.728179 -0.093944
      ESP Fit Center  119 is at  -1.330700 -2.895837 -0.093944
      ESP Fit Center  120 is at  -1.128886 -3.040643 -0.093944
      ESP Fit Center  121 is at  -0.911363 -3.160564 -0.093944
      ESP Fit Center  122 is at  -0.681183 -3.253916 -0.093944
      ESP Fit Center  123 is at  -0.441577 -3.319388 -0.093944
      ESP Fit Center  124 is at  -0.195910 -3.356062 -0.093944
      ESP Fit Center  125 is at   0.052371 -3.363423 -0.093944
      ESP Fit Center  126 is at   0.299779 -3.341367 -0.093944
      ESP Fit Center  127 is at   0.542843 -3.290204 -0.093944
      ESP Fit Center  128 is at   0.778149 -3.210652 -0.093944
      ESP Fit Center  129 is at   1.002394 -3.103828 -0.093944
      ESP Fit Center  130 is at   1.212432 -2.971232 -0.093944
      ESP Fit Center  131 is at   1.405312 -2.814725 -0.093944
      ESP Fit Center  132 is at   1.578328 -2.636503 -0.093944
      ESP Fit Center  133 is at  -1.676124 -2.540021 -0.338152
      ESP Fit Center  134 is at  -1.513970 -2.728179 -0.338152
      ESP Fit Center  135 is at  -1.330700 -2.895837 -0.338152
      ESP Fit Center  136 is at  -1.128886 -3.040643 -0.338152
      ESP Fit Center  137 is at  -0.911363 -3.160564 -0.338152
      ESP Fit Center  138 is at  -0.681183 -3.253916 -0.338152
      ESP Fit Center  139 is at  -0.441577 -3.319388 -0.338152
      ESP Fit Center  140 is at  -0.195910 -3.356062 -0.338152
      ESP Fit Center  141 is at   0.052371 -3.363423 -0.338152
      ESP Fit Center  142 is at   0.299779 -3.341367 -0.338152
      ESP Fit Center  143 is at   0.542843 -3.290204 -0.338152
      ESP Fit Center  144 is at   0.778149 -3.210652 -0.338152
      ESP Fit Center  145 is at   1.002394 -3.103828 -0.338152
      ESP Fit Center  146 is at   1.212432 -2.971232 -0.338152
      ESP Fit Center  147 is at   1.405312 -2.814725 -0.338152
      ESP Fit Center  148 is at   1.578328 -2.636503 -0.338152
      ESP Fit Center  149 is at   1.729051 -2.439070 -0.338152
      ESP Fit Center  150 is at  -1.653589 -2.522817 -0.580709
      ESP Fit Center  151 is at  -1.493628 -2.708431 -0.580709
      ESP Fit Center  152 is at  -1.312836 -2.873822 -0.580709
      ESP Fit Center  153 is at  -1.113752 -3.016670 -0.580709
      ESP Fit Center  154 is at  -0.899170 -3.134969 -0.580709
      ESP Fit Center  155 is at  -0.672103 -3.227058 -0.580709
      ESP Fit Center  156 is at  -0.435737 -3.291645 -0.580709
      ESP Fit Center  157 is at  -0.193392 -3.327823 -0.580709
      ESP Fit Center  158 is at   0.051531 -3.335084 -0.580709
      ESP Fit Center  159 is at   0.295593 -3.313326 -0.580709
      ESP Fit Center  160 is at   0.535370 -3.262855 -0.580709
      ESP Fit Center  161 is at   0.767494 -3.184379 -0.580709
      ESP Fit Center  162 is at   0.988707 -3.079000 -0.580709
      ESP Fit Center  163 is at   1.195904 -2.948197 -0.580709
      ESP Fit Center  164 is at   1.386176 -2.793806 -0.580709
      ESP Fit Center  165 is at   1.556852 -2.617995 -0.580709
      ESP Fit Center  166 is at   1.705537 -2.423231 -0.580709
      ESP Fit Center  167 is at  -1.720202 -2.326961 -0.818335
      ESP Fit Center  168 is at  -1.577091 -2.529128 -0.818335
      ESP Fit Center  169 is at  -1.410221 -2.712176 -0.818335
      ESP Fit Center  170 is at  -1.222121 -2.873330 -0.818335
      ESP Fit Center  171 is at  -1.015643 -3.010147 -0.818335
      ESP Fit Center  172 is at  -0.793916 -3.120554 -0.818335
      ESP Fit Center  173 is at  -0.560303 -3.202876 -0.818335
      ESP Fit Center  174 is at  -0.318344 -3.255866 -0.818335
      ESP Fit Center  175 is at  -0.071707 -3.278720 -0.818335
      ESP Fit Center  176 is at   0.175870 -3.271092 -0.818335
      ESP Fit Center  177 is at   0.420632 -3.233098 -0.818335
      ESP Fit Center  178 is at   0.658870 -3.165313 -0.818335
      ESP Fit Center  179 is at   0.886973 -3.068766 -0.818335
      ESP Fit Center  180 is at   1.101482 -2.944919 -0.818335
      ESP Fit Center  181 is at   1.299146 -2.795650 -0.818335
      ESP Fit Center  182 is at   1.476968 -2.623222 -0.818335
      ESP Fit Center  183 is at   1.632253 -2.430249 -0.818335
      ESP Fit Center  184 is at  -1.625800 -2.319826 -1.047816
      ESP Fit Center  185 is at  -1.478015 -2.517845 -1.047816
      ESP Fit Center  186 is at  -1.306121 -2.695340 -1.047816
      ESP Fit Center  187 is at  -1.112940 -2.849396 -1.047816
      ESP Fit Center  188 is at  -0.901645 -2.977485 -1.047816
      ESP Fit Center  189 is at  -0.675705 -3.077501 -1.047816
      ESP Fit Center  190 is at  -0.438831 -3.147805 -1.047816
      ESP Fit Center  191 is at  -0.194911 -3.187240 -1.047816
      ESP Fit Center  192 is at   0.052050 -3.195159 -1.047816
      ESP Fit Center  193 is at   0.297995 -3.171433 -1.047816
      ESP Fit Center  194 is at   0.538888 -3.116451 -1.047816
      ESP Fit Center  195 is at   0.770771 -3.031116 -1.047816
      ESP Fit Center  196 is at   0.989839 -2.916828 -1.047816
      ESP Fit Center  197 is at   1.192493 -2.775466 -1.047816
      ESP Fit Center  198 is at   1.375406 -2.609349 -1.047816
      ESP Fit Center  199 is at   1.535575 -2.421205 -1.047816
      ESP Fit Center  200 is at  -1.563647 -2.212839 -1.266048
      ESP Fit Center  201 is at  -1.420504 -2.415626 -1.266048
      ESP Fit Center  202 is at  -1.251081 -2.597033 -1.266048
      ESP Fit Center  203 is at  -1.058535 -2.753681 -1.266048
      ESP Fit Center  204 is at  -0.846453 -2.882652 -1.266048
      ESP Fit Center  205 is at  -0.618784 -2.981542 -1.266048
      ESP Fit Center  206 is at  -0.379770 -3.048511 -1.266048
      ESP Fit Center  207 is at  -0.133863 -3.082310 -1.266048
      ESP Fit Center  208 is at   0.114355 -3.082310 -1.266048
      ESP Fit Center  209 is at   0.360262 -3.048511 -1.266048
      ESP Fit Center  210 is at   0.599276 -2.981542 -1.266048
      ESP Fit Center  211 is at   0.826945 -2.882652 -1.266048
      ESP Fit Center  212 is at   1.039028 -2.753681 -1.266048
      ESP Fit Center  213 is at   1.231574 -2.597033 -1.266048
      ESP Fit Center  214 is at   1.400996 -2.415626 -1.266048
      ESP Fit Center  215 is at   1.544139 -2.212839 -1.266048
      ESP Fit Center  216 is at  -1.478685 -2.092300 -1.470081
      ESP Fit Center  217 is at   1.515436 -1.982876 -1.470081
      ESP Fit Center  218 is at  -1.528746 -1.920008 -1.611814
      ESP Fit Center  219 is at  -1.417480 -2.144728 -1.611814
      ESP Fit Center  220 is at  -1.273215 -2.349829 -1.611814
      ESP Fit Center  221 is at  -1.099332 -2.530505 -1.611814
      ESP Fit Center  222 is at  -0.899907 -2.682520 -1.611814
      ESP Fit Center  223 is at  -0.679614 -2.802312 -1.611814
      ESP Fit Center  224 is at  -0.443617 -2.887072 -1.611814
      ESP Fit Center  225 is at  -0.197447 -2.934813 -1.611814
      ESP Fit Center  226 is at   0.053126 -2.944418 -1.611814
      ESP Fit Center  227 is at   0.302228 -2.915660 -1.611814
      ESP Fit Center  228 is at   0.544021 -2.849215 -1.611814
      ESP Fit Center  229 is at   0.772838 -2.746638 -1.611814
      ESP Fit Center  230 is at   0.983314 -2.610335 -1.611814
      ESP Fit Center  231 is at   1.170518 -2.443500 -1.611814
      ESP Fit Center  232 is at   1.330060 -2.250043 -1.611814
      ESP Fit Center  233 is at   1.458201 -2.034501 -1.611814
      ESP Fit Center  234 is at   1.551938 -1.801923 -1.611814
      ESP Fit Center  235 is at   1.554259 -1.307741 -1.851752
      ESP Fit Center  236 is at  -1.573477 -1.307741 -1.851752
      ESP Fit Center  237 is at  -1.554223 -1.552384 -1.851752
      ESP Fit Center  238 is at  -1.496936 -1.791003 -1.851752
      ESP Fit Center  239 is at  -1.403026 -2.017722 -1.851752
      ESP Fit Center  240 is at  -1.274805 -2.226960 -1.851752
      ESP Fit Center  241 is at  -1.115431 -2.413563 -1.851752
      ESP Fit Center  242 is at  -0.928828 -2.572937 -1.851752
      ESP Fit Center  243 is at  -0.719591 -2.701158 -1.851752
      ESP Fit Center  244 is at  -0.492871 -2.795068 -1.851752
      ESP Fit Center  245 is at  -0.254252 -2.852355 -1.851752
      ESP Fit Center  246 is at  -0.009609 -2.871609 -1.851752
      ESP Fit Center  247 is at   0.235033 -2.852355 -1.851752
      ESP Fit Center  248 is at   0.473652 -2.795068 -1.851752
      ESP Fit Center  249 is at   0.700372 -2.701158 -1.851752
      ESP Fit Center  250 is at   0.909609 -2.572937 -1.851752
      ESP Fit Center  251 is at   1.096212 -2.413563 -1.851752
      ESP Fit Center  252 is at   1.255586 -2.226960 -1.851752
      ESP Fit Center  253 is at   1.383807 -2.017722 -1.851752
      ESP Fit Center  254 is at   1.477717 -1.791003 -1.851752
      ESP Fit Center  255 is at   1.535005 -1.552384 -1.851752
      ESP Fit Center  256 is at   1.445313 -1.307741 -2.077979
      ESP Fit Center  257 is at   1.424386 -1.061858 -2.077979
      ESP Fit Center  258 is at   1.362204 -0.823049 -2.077979
      ESP Fit Center  259 is at   1.260559 -0.598183 -2.077979
      ESP Fit Center  260 is at   1.122373 -0.393730 -2.077979
      ESP Fit Center  261 is at   0.951621 -0.215571 -2.077979
      ESP Fit Center  262 is at   0.753217 -0.068832 -2.077979
      ESP Fit Center  263 is at   0.532868  0.042266 -2.077979
      ESP Fit Center  264 is at   0.296913  0.114526 -2.077979
      ESP Fit Center  265 is at   0.052139  0.145871 -2.077979
      ESP Fit Center  266 is at  -0.194410  0.135397 -2.077979
      ESP Fit Center  267 is at  -0.435644  0.083408 -2.077979
      ESP Fit Center  268 is at  -0.664621 -0.008603 -2.077979
      ESP Fit Center  269 is at  -0.874755 -0.137987 -2.077979
      ESP Fit Center  270 is at  -1.060000 -0.301024 -2.077979
      ESP Fit Center  271 is at  -1.215027 -0.493021 -2.077979
      ESP Fit Center  272 is at  -1.335376 -0.708457 -2.077979
      ESP Fit Center  273 is at  -1.417586 -0.941133 -2.077979
      ESP Fit Center  274 is at  -1.459291 -1.184355 -2.077979
      ESP Fit Center  275 is at  -1.459291 -1.431127 -2.077979
      ESP Fit Center  276 is at  -1.417586 -1.674350 -2.077979
      ESP Fit Center  277 is at  -1.335376 -1.907026 -2.077979
      ESP Fit Center  278 is at  -1.215027 -2.122461 -2.077979
      ESP Fit Center  279 is at  -1.060000 -2.314459 -2.077979
      ESP Fit Center  280 is at  -0.874755 -2.477495 -2.077979
      ESP Fit Center  281 is at  -0.664621 -2.606879 -2.077979
      ESP Fit Center  282 is at  -0.435644 -2.698890 -2.077979
      ESP Fit Center  283 is at  -0.194410 -2.750880 -2.077979
      ESP Fit Center  284 is at   0.052139 -2.761353 -2.077979
      ESP Fit Center  285 is at   0.296913 -2.730008 -2.077979
      ESP Fit Center  286 is at   0.532868 -2.657748 -2.077979
      ESP Fit Center  287 is at   0.753217 -2.546650 -2.077979
      ESP Fit Center  288 is at   0.951621 -2.399911 -2.077979
      ESP Fit Center  289 is at   1.122373 -2.221753 -2.077979
      ESP Fit Center  290 is at   1.260559 -2.017300 -2.077979
      ESP Fit Center  291 is at   1.362204 -1.792434 -2.077979
      ESP Fit Center  292 is at   1.424386 -1.553624 -2.077979
      ESP Fit Center  293 is at   1.303868 -1.307741 -2.285442
      ESP Fit Center  294 is at   1.280131 -1.059164 -2.285442
      ESP Fit Center  295 is at   1.209780 -0.819571 -2.285442
      ESP Fit Center  296 is at   1.095358 -0.597622 -2.285442
      ESP Fit Center  297 is at   0.940999 -0.401338 -2.285442
      ESP Fit Center  298 is at   0.752282 -0.237814 -2.285442
      ESP Fit Center  299 is at   0.536029 -0.112961 -2.285442
      ESP Fit Center  300 is at   0.300055 -0.031289 -2.285442
      ESP Fit Center  301 is at   0.052888  0.004248 -2.285442
      ESP Fit Center  302 is at  -0.196537 -0.007634 -2.285442
      ESP Fit Center  303 is at  -0.439206 -0.066504 -2.285442
      ESP Fit Center  304 is at  -0.666348 -0.170237 -2.285442
      ESP Fit Center  305 is at  -0.869754 -0.315082 -2.285442
      ESP Fit Center  306 is at  -1.042072 -0.495804 -2.285442
      ESP Fit Center  307 is at  -1.177074 -0.705871 -2.285442
      ESP Fit Center  308 is at  -1.269881 -0.937692 -2.285442
      ESP Fit Center  309 is at  -1.317139 -1.182887 -2.285442
      ESP Fit Center  310 is at  -1.317139 -1.432595 -2.285442
      ESP Fit Center  311 is at  -1.269881 -1.677790 -2.285442
      ESP Fit Center  312 is at  -1.177074 -1.909611 -2.285442
      ESP Fit Center  313 is at  -1.042072 -2.119679 -2.285442
      ESP Fit Center  314 is at  -0.869754 -2.300401 -2.285442
      ESP Fit Center  315 is at  -0.666348 -2.445246 -2.285442
      ESP Fit Center  316 is at  -0.439206 -2.548978 -2.285442
      ESP Fit Center  317 is at  -0.196537 -2.607849 -2.285442
      ESP Fit Center  318 is at   0.052888 -2.619730 -2.285442
      ESP Fit Center  319 is at   0.300055 -2.584193 -2.285442
      ESP Fit Center  320 is at   0.536029 -2.502522 -2.285442
      ESP Fit Center  321 is at   0.752282 -2.377668 -2.285442
      ESP Fit Center  322 is at   0.940999 -2.214144 -2.285442
      ESP Fit Center  323 is at   1.095358 -2.017860 -2.285442
      ESP Fit Center  324 is at   1.209780 -1.795911 -2.285442
      ESP Fit Center  325 is at   1.280131 -1.556318 -2.285442
      ESP Fit Center  326 is at   1.133081 -1.307741 -2.469506
      ESP Fit Center  327 is at   1.106365 -1.062097 -2.469506
      ESP Fit Center  328 is at   1.027468 -0.827938 -2.469506
      ESP Fit Center  329 is at   0.900078 -0.616215 -2.469506
      ESP Fit Center  330 is at   0.730153 -0.436826 -2.469506
      ESP Fit Center  331 is at   0.525636 -0.298161 -2.469506
      ESP Fit Center  332 is at   0.296093 -0.206702 -2.469506
      ESP Fit Center  333 is at   0.052255 -0.166727 -2.469506
      ESP Fit Center  334 is at  -0.194476 -0.180104 -2.469506
      ESP Fit Center  335 is at  -0.432563 -0.246209 -2.469506
      ESP Fit Center  336 is at  -0.650872 -0.361949 -2.469506
      ESP Fit Center  337 is at  -0.839197 -0.521914 -2.469506
      ESP Fit Center  338 is at  -0.988732 -0.718623 -2.469506
      ESP Fit Center  339 is at  -1.092483 -0.942878 -2.469506
      ESP Fit Center  340 is at  -1.145601 -1.184195 -2.469506
      ESP Fit Center  341 is at  -1.145601 -1.431288 -2.469506
      ESP Fit Center  342 is at  -1.092483 -1.672604 -2.469506
      ESP Fit Center  343 is at  -0.988732 -1.896859 -2.469506
      ESP Fit Center  344 is at  -0.839197 -2.093569 -2.469506
      ESP Fit Center  345 is at  -0.650872 -2.253533 -2.469506
      ESP Fit Center  346 is at  -0.432563 -2.369274 -2.469506
      ESP Fit Center  347 is at  -0.194476 -2.435378 -2.469506
      ESP Fit Center  348 is at   0.052255 -2.448755 -2.469506
      ESP Fit Center  349 is at   0.296093 -2.408780 -2.469506
      ESP Fit Center  350 is at   0.525636 -2.317322 -2.469506
      ESP Fit Center  351 is at   0.730153 -2.178656 -2.469506
      ESP Fit Center  352 is at   0.900078 -1.999268 -2.469506
      ESP Fit Center  353 is at   1.027468 -1.787544 -2.469506
      ESP Fit Center  354 is at   1.106365 -1.553386 -2.469506
      ESP Fit Center  355 is at   0.936768 -1.307741 -2.626060
      ESP Fit Center  356 is at   0.904521 -1.062801 -2.626060
      ESP Fit Center  357 is at   0.809978 -0.834552 -2.626060
      ESP Fit Center  358 is at   0.659581 -0.638551 -2.626060
      ESP Fit Center  359 is at   0.463579 -0.488154 -2.626060
      ESP Fit Center  360 is at   0.235331 -0.393610 -2.626060
      ESP Fit Center  361 is at  -0.009609 -0.361363 -2.626060
      ESP Fit Center  362 is at  -0.254550 -0.393610 -2.626060
      ESP Fit Center  363 is at  -0.482798 -0.488154 -2.626060
      ESP Fit Center  364 is at  -0.678799 -0.638551 -2.626060
      ESP Fit Center  365 is at  -0.829196 -0.834552 -2.626060
      ESP Fit Center  366 is at  -0.923740 -1.062801 -2.626060
      ESP Fit Center  367 is at  -0.955987 -1.307741 -2.626060
      ESP Fit Center  368 is at  -0.923740 -1.552682 -2.626060
      ESP Fit Center  369 is at  -0.829196 -1.780930 -2.626060
      ESP Fit Center  370 is at  -0.678799 -1.976931 -2.626060
      ESP Fit Center  371 is at  -0.482798 -2.127328 -2.626060
      ESP Fit Center  372 is at  -0.254550 -2.221872 -2.626060
      ESP Fit Center  373 is at  -0.009609 -2.254119 -2.626060
      ESP Fit Center  374 is at   0.235331 -2.221872 -2.626060
      ESP Fit Center  375 is at   0.463579 -2.127328 -2.626060
      ESP Fit Center  376 is at   0.659581 -1.976931 -2.626060
      ESP Fit Center  377 is at   0.809978 -1.780930 -2.626060
      ESP Fit Center  378 is at   0.904521 -1.552682 -2.626060
      ESP Fit Center  379 is at   0.719315 -1.307741 -2.751606
      ESP Fit Center  380 is at   0.675356 -1.058434 -2.751606
      ESP Fit Center  381 is at   0.548779 -0.839197 -2.751606
      ESP Fit Center  382 is at   0.354853 -0.676474 -2.751606
      ESP Fit Center  383 is at   0.116967 -0.589890 -2.751606
      ESP Fit Center  384 is at  -0.136186 -0.589890 -2.751606
      ESP Fit Center  385 is at  -0.374072 -0.676474 -2.751606
      ESP Fit Center  386 is at  -0.567998 -0.839197 -2.751606
      ESP Fit Center  387 is at  -0.694574 -1.058434 -2.751606
      ESP Fit Center  388 is at  -0.738534 -1.307741 -2.751606
      ESP Fit Center  389 is at  -0.694574 -1.557048 -2.751606
      ESP Fit Center  390 is at  -0.567998 -1.776285 -2.751606
      ESP Fit Center  391 is at  -0.374072 -1.939008 -2.751606
      ESP Fit Center  392 is at  -0.136186 -2.025592 -2.751606
      ESP Fit Center  393 is at   0.116967 -2.025592 -2.751606
      ESP Fit Center  394 is at   0.354853 -1.939008 -2.751606
      ESP Fit Center  395 is at   0.548779 -1.776285 -2.751606
      ESP Fit Center  396 is at   0.675356 -1.557048 -2.751606
      ESP Fit Center  397 is at   0.485579 -1.307741 -2.843341
      ESP Fit Center  398 is at   0.419237 -1.060147 -2.843341
      ESP Fit Center  399 is at   0.237985 -0.878895 -2.843341
      ESP Fit Center  400 is at  -0.009609 -0.812552 -2.843341
      ESP Fit Center  401 is at  -0.257204 -0.878895 -2.843341
      ESP Fit Center  402 is at  -0.438455 -1.060147 -2.843341
      ESP Fit Center  403 is at  -0.504798 -1.307741 -2.843341
      ESP Fit Center  404 is at  -0.438455 -1.555335 -2.843341
      ESP Fit Center  405 is at  -0.257204 -1.736587 -2.843341
      ESP Fit Center  406 is at  -0.009609 -1.802930 -2.843341
      ESP Fit Center  407 is at   0.237985 -1.736587 -2.843341
      ESP Fit Center  408 is at   0.419237 -1.555335 -2.843341
      ESP Fit Center  409 is at   0.240782 -1.307741 -2.899215
      ESP Fit Center  410 is at   0.115586 -1.090896 -2.899215
      ESP Fit Center  411 is at  -0.134805 -1.090896 -2.899215
      ESP Fit Center  412 is at  -0.260000 -1.307741 -2.899215
      ESP Fit Center  413 is at  -0.134805 -1.524586 -2.899215
      ESP Fit Center  414 is at   0.115586 -1.524586 -2.899215
      ESP Fit Center  415 is at  -0.009609 -1.307741 -2.917979
      ESP Fit Center  416 is at   2.398585  0.664775  1.455318
      ESP Fit Center  417 is at   2.945762 -0.211656  1.251285
      ESP Fit Center  418 is at   2.895260  0.031371  1.251285
      ESP Fit Center  419 is at   2.812137  0.265258  1.251285
      ESP Fit Center  420 is at   2.697940  0.485647  1.251285
      ESP Fit Center  421 is at   2.554797  0.688434  1.251285
      ESP Fit Center  422 is at   3.072301 -0.459296  1.033052
      ESP Fit Center  423 is at   3.056470 -0.212716  1.033052
      ESP Fit Center  424 is at   3.009237  0.029815  1.033052
      ESP Fit Center  425 is at   2.931378  0.264314  1.033052
      ESP Fit Center  426 is at   2.824171  0.486932  1.033052
      ESP Fit Center  427 is at   2.689376  0.694013  1.033052
      ESP Fit Center  428 is at   1.451796 -2.362833  1.033052
      ESP Fit Center  429 is at   1.692689 -2.307851  1.033052
      ESP Fit Center  430 is at   1.924572 -2.222515  1.033052
      ESP Fit Center  431 is at   2.143640 -2.108228  1.033052
      ESP Fit Center  432 is at   2.346294 -1.966865  1.033052
      ESP Fit Center  433 is at   2.529207 -1.800748  1.033052
      ESP Fit Center  434 is at   2.689376 -1.612605  1.033052
      ESP Fit Center  435 is at   3.056470 -0.705875  1.033052
      ESP Fit Center  436 is at   3.095063  0.031405  0.803571
      ESP Fit Center  437 is at   3.019974  0.267442  0.803571
      ESP Fit Center  438 is at   2.916448  0.492463  0.803571
      ESP Fit Center  439 is at   2.786054  0.703057  0.803571
      ESP Fit Center  440 is at   1.574433 -2.424498  0.803571
      ESP Fit Center  441 is at   1.812671 -2.356713  0.803571
      ESP Fit Center  442 is at   2.040774 -2.260166  0.803571
      ESP Fit Center  443 is at   2.255283 -2.136319  0.803571
      ESP Fit Center  444 is at   2.452947 -1.987050  0.803571
      ESP Fit Center  445 is at   3.082721  0.260819  0.565946
      ESP Fit Center  446 is at   2.983944  0.485058  0.565946
      ESP Fit Center  447 is at   2.859338  0.696040  0.565946
      ESP Fit Center  448 is at   1.689171 -2.454255  0.565946
      ESP Fit Center  449 is at   1.921295 -2.375779  0.565946
      ESP Fit Center  450 is at   2.142508 -2.270400  0.565946
      ESP Fit Center  451 is at   3.009166  0.498003  0.323389
      ESP Fit Center  452 is at   2.882852  0.711878  0.323389
      ESP Fit Center  453 is at   1.696644 -2.481603  0.323389
      ESP Fit Center  454 is at   1.931950 -2.402051  0.323389
      ESP Fit Center  455 is at   2.882852  0.711878  0.079180
      ESP Fit Center  456 is at   1.696644 -2.481603  0.079180
      ESP Fit Center  457 is at   2.859338  0.696040 -0.163377
      ESP Fit Center  458 is at   1.563458 -0.217149 -1.842110
      ESP Fit Center  459 is at   1.387842 -0.459296 -1.884516
      ESP Fit Center  460 is at   1.265945 -0.248163 -1.884516
      ESP Fit Center  461 is at   2.966971 -1.035233  1.076039
      ESP Fit Center  462 is at   3.195531 -0.790293  0.919485
      ESP Fit Center  463 is at   3.168816 -0.544648  0.919485
      ESP Fit Center  464 is at   2.792603 -1.661208  0.919485
      ESP Fit Center  465 is at   2.962529 -1.481819  0.919485
      ESP Fit Center  466 is at   3.089918 -1.270096  0.919485
      ESP Fit Center  467 is at   3.168816 -1.035937  0.919485
      ESP Fit Center  468 is at   3.366318 -0.790293  0.735421
      ESP Fit Center  469 is at   3.342581 -0.541715  0.735421
      ESP Fit Center  470 is at   3.272231 -0.302123  0.735421
      ESP Fit Center  471 is at   3.157808 -0.080173  0.735421
      ESP Fit Center  472 is at   2.598479 -1.985073  0.735421
      ESP Fit Center  473 is at   2.814732 -1.860219  0.735421
      ESP Fit Center  474 is at   3.003449 -1.696695  0.735421
      ESP Fit Center  475 is at   3.157808 -1.500412  0.735421
      ESP Fit Center  476 is at   3.272231 -1.278463  0.735421
      ESP Fit Center  477 is at   3.342581 -1.038870  0.735421
      ESP Fit Center  478 is at   3.507763 -0.790293  0.527958
      ESP Fit Center  479 is at   3.486836 -0.544409  0.527958
      ESP Fit Center  480 is at   3.424655 -0.305600  0.527958
      ESP Fit Center  481 is at   3.323009 -0.080734  0.527958
      ESP Fit Center  482 is at   3.184823  0.123719  0.527958
      ESP Fit Center  483 is at   2.359363 -2.212560  0.527958
      ESP Fit Center  484 is at   2.595318 -2.140299  0.527958
      ESP Fit Center  485 is at   2.815667 -2.029202  0.527958
      ESP Fit Center  486 is at   3.014071 -1.882463  0.527958
      ESP Fit Center  487 is at   3.184823 -1.704304  0.527958
      ESP Fit Center  488 is at   3.323009 -1.499851  0.527958
      ESP Fit Center  489 is at   3.424655 -1.274985  0.527958
      ESP Fit Center  490 is at   3.486836 -1.036176  0.527958
      ESP Fit Center  491 is at   3.616709 -0.790293  0.301731
      ESP Fit Center  492 is at   3.597455 -0.545650  0.301731
      ESP Fit Center  493 is at   3.540168 -0.307031  0.301731
      ESP Fit Center  494 is at   3.446257 -0.080311  0.301731
      ESP Fit Center  495 is at   3.318036  0.128926  0.301731
      ESP Fit Center  496 is at   3.158662  0.315529  0.301731
      ESP Fit Center  497 is at   2.052841 -2.354160  0.301731
      ESP Fit Center  498 is at   2.297484 -2.334907  0.301731
      ESP Fit Center  499 is at   2.536103 -2.277619  0.301731
      ESP Fit Center  500 is at   2.762822 -2.183709  0.301731
      ESP Fit Center  501 is at   2.972059 -2.055488  0.301731
      ESP Fit Center  502 is at   3.158662 -1.896114  0.301731
      ESP Fit Center  503 is at   3.318036 -1.709511  0.301731
      ESP Fit Center  504 is at   3.446257 -1.500274  0.301731
      ESP Fit Center  505 is at   3.540168 -1.273554  0.301731
      ESP Fit Center  506 is at   3.597455 -1.034935  0.301731
      ESP Fit Center  507 is at   3.690720 -0.790293  0.061793
      ESP Fit Center  508 is at   3.671524 -0.540272  0.061793
      ESP Fit Center  509 is at   3.614389 -0.296111  0.061793
      ESP Fit Center  510 is at   3.520651 -0.063533  0.061793
      ESP Fit Center  511 is at   3.392510  0.152010  0.061793
      ESP Fit Center  512 is at   3.232968  0.345466  0.061793
      ESP Fit Center  513 is at   3.045765  0.512301  0.061793
      ESP Fit Center  514 is at   2.115576 -2.426970  0.061793
      ESP Fit Center  515 is at   2.364678 -2.398212  0.061793
      ESP Fit Center  516 is at   2.606471 -2.331766  0.061793
      ESP Fit Center  517 is at   2.835288 -2.229189  0.061793
      ESP Fit Center  518 is at   3.045765 -2.092886  0.061793
      ESP Fit Center  519 is at   3.232968 -1.926051  0.061793
      ESP Fit Center  520 is at   3.392510 -1.732595  0.061793
      ESP Fit Center  521 is at   3.520651 -1.517052  0.061793
      ESP Fit Center  522 is at   3.614389 -1.284474  0.061793
      ESP Fit Center  523 is at   3.671524 -1.040314  0.061793
      ESP Fit Center  524 is at   3.728143 -0.790293 -0.186495
      ESP Fit Center  525 is at   3.709431 -0.540602 -0.186495
      ESP Fit Center  526 is at   3.653714 -0.296489 -0.186495
      ESP Fit Center  527 is at   3.562236 -0.063406 -0.186495
      ESP Fit Center  528 is at   3.437041  0.153439 -0.186495
      ESP Fit Center  529 is at   3.280924  0.349202 -0.186495
      ESP Fit Center  530 is at   3.097375  0.519512 -0.186495
      ESP Fit Center  531 is at   2.890492  0.660562 -0.186495
      ESP Fit Center  532 is at   1.927645 -2.460910 -0.186495
      ESP Fit Center  533 is at   2.178036 -2.460910 -0.186495
      ESP Fit Center  534 is at   2.425631 -2.423592 -0.186495
      ESP Fit Center  535 is at   2.664897 -2.349788 -0.186495
      ESP Fit Center  536 is at   2.890492 -2.241147 -0.186495
      ESP Fit Center  537 is at   3.097375 -2.100097 -0.186495
      ESP Fit Center  538 is at   3.280924 -1.929788 -0.186495
      ESP Fit Center  539 is at   3.437041 -1.734024 -0.186495
      ESP Fit Center  540 is at   3.562236 -1.517179 -0.186495
      ESP Fit Center  541 is at   3.653714 -1.284097 -0.186495
      ESP Fit Center  542 is at   3.709431 -1.039983 -0.186495
      ESP Fit Center  543 is at   3.728143 -0.790293 -0.437589
      ESP Fit Center  544 is at   3.709431 -0.540602 -0.437589
      ESP Fit Center  545 is at   3.653714 -0.296489 -0.437589
      ESP Fit Center  546 is at   3.562236 -0.063406 -0.437589
      ESP Fit Center  547 is at   3.437041  0.153439 -0.437589
      ESP Fit Center  548 is at   3.280924  0.349202 -0.437589
      ESP Fit Center  549 is at   3.097375  0.519512 -0.437589
      ESP Fit Center  550 is at   2.890492  0.660562 -0.437589
      ESP Fit Center  551 is at   1.927645 -2.460910 -0.437589
      ESP Fit Center  552 is at   2.178036 -2.460910 -0.437589
      ESP Fit Center  553 is at   2.425631 -2.423592 -0.437589
      ESP Fit Center  554 is at   2.664897 -2.349788 -0.437589
      ESP Fit Center  555 is at   2.890492 -2.241147 -0.437589
      ESP Fit Center  556 is at   3.097375 -2.100097 -0.437589
      ESP Fit Center  557 is at   3.280924 -1.929788 -0.437589
      ESP Fit Center  558 is at   3.437041 -1.734024 -0.437589
      ESP Fit Center  559 is at   3.562236 -1.517179 -0.437589
      ESP Fit Center  560 is at   3.653714 -1.284097 -0.437589
      ESP Fit Center  561 is at   3.709431 -1.039983 -0.437589
      ESP Fit Center  562 is at   3.690720 -0.790293 -0.685877
      ESP Fit Center  563 is at   3.671524 -0.540272 -0.685877
      ESP Fit Center  564 is at   3.614389 -0.296111 -0.685877
      ESP Fit Center  565 is at   3.520651 -0.063533 -0.685877
      ESP Fit Center  566 is at   3.392510  0.152010 -0.685877
      ESP Fit Center  567 is at   3.232968  0.345466 -0.685877
      ESP Fit Center  568 is at   3.045765  0.512301 -0.685877
      ESP Fit Center  569 is at   2.835288  0.648604 -0.685877
      ESP Fit Center  570 is at   1.865003 -2.417365 -0.685877
      ESP Fit Center  571 is at   2.115576 -2.426970 -0.685877
      ESP Fit Center  572 is at   2.364678 -2.398212 -0.685877
      ESP Fit Center  573 is at   2.606471 -2.331766 -0.685877
      ESP Fit Center  574 is at   2.835288 -2.229189 -0.685877
      ESP Fit Center  575 is at   3.045765 -2.092886 -0.685877
      ESP Fit Center  576 is at   3.232968 -1.926051 -0.685877
      ESP Fit Center  577 is at   3.392510 -1.732595 -0.685877
      ESP Fit Center  578 is at   3.520651 -1.517052 -0.685877
      ESP Fit Center  579 is at   3.614389 -1.284474 -0.685877
      ESP Fit Center  580 is at   3.671524 -1.040314 -0.685877
      ESP Fit Center  581 is at   3.616709 -0.790293 -0.925815
      ESP Fit Center  582 is at   3.597455 -0.545650 -0.925815
      ESP Fit Center  583 is at   3.540168 -0.307031 -0.925815
      ESP Fit Center  584 is at   3.446257 -0.080311 -0.925815
      ESP Fit Center  585 is at   3.318036  0.128926 -0.925815
      ESP Fit Center  586 is at   3.158662  0.315529 -0.925815
      ESP Fit Center  587 is at   2.972059  0.474903 -0.925815
      ESP Fit Center  588 is at   2.762822  0.603124 -0.925815
      ESP Fit Center  589 is at   1.808198 -2.334907 -0.925815
      ESP Fit Center  590 is at   2.052841 -2.354160 -0.925815
      ESP Fit Center  591 is at   2.297484 -2.334907 -0.925815
      ESP Fit Center  592 is at   2.536103 -2.277619 -0.925815
      ESP Fit Center  593 is at   2.762822 -2.183709 -0.925815
      ESP Fit Center  594 is at   2.972059 -2.055488 -0.925815
      ESP Fit Center  595 is at   3.158662 -1.896114 -0.925815
      ESP Fit Center  596 is at   3.318036 -1.709511 -0.925815
      ESP Fit Center  597 is at   3.446257 -1.500274 -0.925815
      ESP Fit Center  598 is at   3.540168 -1.273554 -0.925815
      ESP Fit Center  599 is at   3.597455 -1.034935 -0.925815
      ESP Fit Center  600 is at   3.507763 -0.790293 -1.152042
      ESP Fit Center  601 is at   3.486836 -0.544409 -1.152042
      ESP Fit Center  602 is at   3.424655 -0.305600 -1.152042
      ESP Fit Center  603 is at   3.323009 -0.080734 -1.152042
      ESP Fit Center  604 is at   3.184823  0.123719 -1.152042
      ESP Fit Center  605 is at   3.014071  0.301878 -1.152042
      ESP Fit Center  606 is at   2.815667  0.448616 -1.152042
      ESP Fit Center  607 is at   1.868040 -2.233431 -1.152042
      ESP Fit Center  608 is at   2.114589 -2.243904 -1.152042
      ESP Fit Center  609 is at   2.359363 -2.212560 -1.152042
      ESP Fit Center  610 is at   2.595318 -2.140299 -1.152042
      ESP Fit Center  611 is at   2.815667 -2.029202 -1.152042
      ESP Fit Center  612 is at   3.014071 -1.882463 -1.152042
      ESP Fit Center  613 is at   3.184823 -1.704304 -1.152042
      ESP Fit Center  614 is at   3.323009 -1.499851 -1.152042
      ESP Fit Center  615 is at   3.424655 -1.274985 -1.152042
      ESP Fit Center  616 is at   3.486836 -1.036176 -1.152042
      ESP Fit Center  617 is at   3.366318 -0.790293 -1.359505
      ESP Fit Center  618 is at   3.342581 -0.541715 -1.359505
      ESP Fit Center  619 is at   3.272231 -0.302123 -1.359505
      ESP Fit Center  620 is at   3.157808 -0.080173 -1.359505
      ESP Fit Center  621 is at   3.003449  0.116110 -1.359505
      ESP Fit Center  622 is at   2.814732  0.279634 -1.359505
      ESP Fit Center  623 is at   2.598479  0.404488 -1.359505
      ESP Fit Center  624 is at   1.623245 -2.031529 -1.359505
      ESP Fit Center  625 is at   1.865914 -2.090400 -1.359505
      ESP Fit Center  626 is at   2.115339 -2.102282 -1.359505
      ESP Fit Center  627 is at   2.362505 -2.066745 -1.359505
      ESP Fit Center  628 is at   2.598479 -1.985073 -1.359505
      ESP Fit Center  629 is at   2.814732 -1.860219 -1.359505
      ESP Fit Center  630 is at   3.003449 -1.696695 -1.359505
      ESP Fit Center  631 is at   3.157808 -1.500412 -1.359505
      ESP Fit Center  632 is at   3.272231 -1.278463 -1.359505
      ESP Fit Center  633 is at   3.342581 -1.038870 -1.359505
      ESP Fit Center  634 is at   3.195531 -0.790293 -1.543569
      ESP Fit Center  635 is at   3.168816 -0.544648 -1.543569
      ESP Fit Center  636 is at   3.089918 -0.310489 -1.543569
      ESP Fit Center  637 is at   2.962529 -0.098766 -1.543569
      ESP Fit Center  638 is at   2.792603  0.080623 -1.543569
      ESP Fit Center  639 is at   2.588087  0.219288 -1.543569
      ESP Fit Center  640 is at   1.629888 -1.851825 -1.543569
      ESP Fit Center  641 is at   1.867974 -1.917930 -1.543569
      ESP Fit Center  642 is at   2.114705 -1.931307 -1.543569
      ESP Fit Center  643 is at   2.358543 -1.891332 -1.543569
      ESP Fit Center  644 is at   2.588087 -1.799873 -1.543569
      ESP Fit Center  645 is at   2.792603 -1.661208 -1.543569
      ESP Fit Center  646 is at   2.962529 -1.481819 -1.543569
      ESP Fit Center  647 is at   3.089918 -1.270096 -1.543569
      ESP Fit Center  648 is at   3.168816 -1.035937 -1.543569
      ESP Fit Center  649 is at   2.999218 -0.790293 -1.700123
      ESP Fit Center  650 is at   2.966971 -0.545352 -1.700123
[...]
 **** Fit      -0.008271
 **** Fit      -0.009405
 **** Fit      -0.010630
 **** Fit       0.002034
 **** Fit       0.001947
 **** Fit       0.001849
 **** Fit       0.001737
 **** Fit       0.001608
 **** Fit       0.001460
 **** Fit       0.001289
 **** Fit       0.001092
 **** Fit      -0.003153
 **** Fit      -0.003875
 **** Fit      -0.004664
 **** Fit      -0.005524
 **** Fit      -0.006458
 **** Fit      -0.007472
 **** Fit      -0.008571
 **** Fit      -0.009762
 **** Fit      -0.011048
 **** Fit       0.002129
 **** Fit       0.002065
 **** Fit       0.001989
 **** Fit       0.001897
 **** Fit       0.001788
 **** Fit       0.001658
 **** Fit      -0.004435
 **** Fit      -0.005311
 **** Fit      -0.006264
 **** Fit      -0.007300
 **** Fit      -0.008423
 **** Fit      -0.009641
 **** Fit       0.002218
 **** Fit       0.002170
 **** Fit       0.002107
 **** Fit       0.002026
 **** Fit      -0.005383
 **** Fit      -0.006366
 **** Fit      -0.007433
 **** Fit      -0.008590
 **** Fit      -0.009843
 **** Fit       0.002348
 **** Fit       0.002312
 **** Fit       0.002260
 **** Fit      -0.005691
 **** Fit      -0.006741
 **** Fit      -0.007881
 **** Fit      -0.009117
 **** Fit       0.002513
 **** Fit       0.002495
 **** Fit      -0.006356
 **** Fit      -0.007486
 **** Fit       0.002690
 **** Fit       0.002694
 **** Fit      -0.006626
 **** Fit      -0.007804
 **** Fit      -0.006450
 **** Fit       0.006267
 **** Fit       0.006615
 **** Fit       0.006491
 **** Fit       0.006313
 **** Fit       0.006275
 **** Fit       0.007083
 **** Fit       0.006975
 **** Fit       0.006915
 **** Fit       0.006916
 **** Fit       0.007601
 **** Fit       0.007518
 **** Fit       0.007525
 **** Fit       0.008131
 **** Fit       0.000722
 **** Fit       0.000440
 **** Fit       0.000125
 **** Fit      -0.000227
 **** Fit      -0.000620
 **** Fit      -0.001061
 **** Fit      -0.001555
 **** Fit      -0.002109
 **** Fit      -0.002731
 **** Fit       0.001373
 **** Fit       0.001160
 **** Fit       0.000922
 **** Fit       0.000656
 **** Fit       0.000358
 **** Fit       0.000024
 **** Fit      -0.000349
 **** Fit      -0.000767
 **** Fit      -0.001235
 **** Fit      -0.001759
 **** Fit      -0.002348
 **** Fit      -0.003010
 **** Fit      -0.003757
 **** Fit       0.001722
 **** Fit       0.001545
 **** Fit       0.001347
 **** Fit       0.001123
 **** Fit       0.000872
 **** Fit       0.000591
 **** Fit       0.000276
 **** Fit      -0.000076
 **** Fit      -0.000471
 **** Fit      -0.000912
 **** Fit      -0.001406
 **** Fit      -0.001960
 **** Fit      -0.002581
 **** Fit      -0.003280
 **** Fit      -0.004068
 **** Fit       0.002102
 **** Fit       0.001966
 **** Fit       0.001811
 **** Fit       0.001634
 **** Fit       0.001434
 **** Fit       0.001209
 **** Fit       0.000955
 **** Fit       0.000670
 **** Fit       0.000351
 **** Fit      -0.000007
 **** Fit      -0.000407
 **** Fit      -0.000854
 **** Fit      -0.001355
 **** Fit      -0.001917
 **** Fit      -0.002546
 **** Fit      -0.003255
 **** Fit      -0.004053
 **** Fit      -0.004957
 **** Fit       0.002374
 **** Fit       0.002266
 **** Fit       0.002139
 **** Fit       0.001991
 **** Fit       0.001823
 **** Fit       0.001631
 **** Fit       0.001413
 **** Fit       0.001168
 **** Fit       0.000892
 **** Fit       0.000581
 **** Fit       0.000233
 **** Fit      -0.000156
 **** Fit      -0.000592
 **** Fit      -0.001081
 **** Fit      -0.001627
 **** Fit      -0.002241
 **** Fit      -0.002930
 **** Fit      -0.003707
 **** Fit      -0.004586
 **** Fit      -0.005584
 **** Fit       0.002534
 **** Fit       0.002433
 **** Fit       0.002313
 **** Fit       0.002172
 **** Fit       0.002010
 **** Fit       0.001826
 **** Fit       0.001616
 **** Fit       0.001379
 **** Fit       0.001112
 **** Fit       0.000811
 **** Fit       0.000474
 **** Fit       0.000097
 **** Fit      -0.000325
 **** Fit      -0.000798
 **** Fit      -0.001327
 **** Fit      -0.001919
 **** Fit      -0.002584
 **** Fit      -0.003333
 **** Fit      -0.004177
 **** Fit      -0.005135
 **** Fit       0.002780
 **** Fit       0.002701
 **** Fit       0.002604
 **** Fit       0.002488
 **** Fit       0.002353
 **** Fit       0.002197
 **** Fit       0.002019
 **** Fit       0.001817
 **** Fit       0.001588
 **** Fit       0.001330
 **** Fit       0.001041
 **** Fit       0.000716
 **** Fit       0.000352
 **** Fit      -0.000055
 **** Fit      -0.000509
 **** Fit      -0.001016
 **** Fit      -0.001584
 **** Fit      -0.002219
 **** Fit      -0.002932
 **** Fit      -0.003735
 **** Fit      -0.004641
 **** Fit      -0.005670
 **** Fit       0.002991
 **** Fit       0.002921
 **** Fit       0.002834
 **** Fit       0.002729
 **** Fit       0.002607
 **** Fit       0.002465
 **** Fit       0.002302
 **** Fit       0.002116
 **** Fit       0.001906
 **** Fit       0.001669
 **** Fit       0.001401
 **** Fit       0.001101
 **** Fit       0.000765
 **** Fit       0.000389
 **** Fit      -0.000031
 **** Fit      -0.000499
 **** Fit      -0.001022
 **** Fit      -0.001606
 **** Fit      -0.002260
 **** Fit      -0.002993
 **** Fit      -0.003817
 **** Fit      -0.004747
 **** Fit      -0.005801
 **** Fit       0.003188
 **** Fit       0.003114
 **** Fit       0.003024
 **** Fit       0.002919
 **** Fit       0.002797
 **** Fit       0.002656
 **** Fit       0.002494
 **** Fit       0.002310
 **** Fit       0.002102
 **** Fit       0.001866
 **** Fit       0.001601
 **** Fit       0.001304
 **** Fit       0.000970
 **** Fit       0.000597
 **** Fit       0.000181
 **** Fit      -0.000283
 **** Fit      -0.000801
 **** Fit      -0.001378
 **** Fit      -0.002024
 **** Fit      -0.002746
 **** Fit      -0.003556
 **** Fit      -0.004467
 **** Fit      -0.005496
 **** Fit       0.003400
 **** Fit       0.003317
 **** Fit       0.003222
 **** Fit       0.003113
 **** Fit       0.002989
 **** Fit       0.002847
 **** Fit       0.002686
 **** Fit       0.002504
 **** Fit       0.002297
 **** Fit       0.002064
 **** Fit       0.001802
 **** Fit       0.001509
 **** Fit       0.001180
 **** Fit       0.000813
 **** Fit       0.000404
 **** Fit      -0.000052
 **** Fit      -0.000558
 **** Fit      -0.001122
 **** Fit      -0.001750
 **** Fit      -0.002449
 **** Fit      -0.003229
 **** Fit      -0.004102
 **** Fit       0.003628
 **** Fit       0.003531
 **** Fit       0.003427
 **** Fit       0.003312
 **** Fit       0.003184
 **** Fit       0.003041
 **** Fit       0.002880
 **** Fit       0.002698
 **** Fit       0.002494
 **** Fit       0.002264
 **** Fit       0.002006
 **** Fit       0.001718
 **** Fit       0.001397
 **** Fit       0.001039
 **** Fit       0.000641
 **** Fit       0.000200
 **** Fit      -0.000289
 **** Fit      -0.000831
 **** Fit      -0.001430
 **** Fit      -0.002092
 **** Fit      -0.002825
 **** Fit      -0.003634
 **** Fit       0.003828
 **** Fit       0.003711
 **** Fit       0.003590
 **** Fit       0.003460
 **** Fit       0.003319
 **** Fit       0.003163
 **** Fit       0.002990
 **** Fit       0.002796
 **** Fit       0.002578
 **** Fit       0.002336
 **** Fit       0.002064
 **** Fit       0.001763
 **** Fit       0.001427
 **** Fit       0.001055
 **** Fit       0.000644
 **** Fit       0.000190
 **** Fit      -0.000309
 **** Fit      -0.000857
 **** Fit      -0.001458
 **** Fit      -0.002113
 **** Fit      -0.002827
 **** Fit       0.004027
 **** Fit       0.003889
 **** Fit       0.003751
 **** Fit       0.003606
 **** Fit       0.003452
 **** Fit       0.003283
 **** Fit       0.003097
 **** Fit       0.002892
 **** Fit       0.002663
 **** Fit       0.002409
 **** Fit       0.002127
 **** Fit       0.001815
 **** Fit       0.001471
 **** Fit       0.001093
 **** Fit       0.000678
 **** Fit       0.000226
 **** Fit      -0.000265
 **** Fit      -0.000795
 **** Fit      -0.001363
 **** Fit      -0.001966
 **** Fit       0.004321
 **** Fit       0.004156
 **** Fit       0.003998
 **** Fit       0.003839
 **** Fit       0.003674
 **** Fit       0.003498
 **** Fit       0.003307
 **** Fit       0.003098
 **** Fit       0.002868
 **** Fit       0.002613
 **** Fit       0.002333
 **** Fit       0.002025
 **** Fit       0.001688
 **** Fit       0.001322
 **** Fit       0.000925
 **** Fit       0.000500
 **** Fit       0.000048
 **** Fit      -0.000425
 **** Fit      -0.000912
 **** Fit       0.004648
 **** Fit       0.004448
 **** Fit       0.004265
 **** Fit       0.004088
 **** Fit       0.003911
 **** Fit       0.003726
 **** Fit       0.003529
 **** Fit       0.003317
 **** Fit       0.003086
 **** Fit       0.002834
 **** Fit       0.002560
 **** Fit       0.002262
 **** Fit       0.001940
 **** Fit       0.001597
 **** Fit       0.001235
 **** Fit       0.000859
 **** Fit       0.000477
 **** Fit       0.000103
 **** Fit       0.004911
 **** Fit       0.004678
 **** Fit       0.004469
 **** Fit       0.004270
 **** Fit       0.004073
 **** Fit       0.003871
 **** Fit       0.003659
 **** Fit       0.003433
 **** Fit       0.003191
 **** Fit       0.002931
 **** Fit       0.002653
 **** Fit       0.002359
 **** Fit       0.002053
 **** Fit       0.001741
 **** Fit       0.001435
 **** Fit       0.001149
 **** Fit       0.000910
 **** Fit       0.004915
 **** Fit       0.004678
 **** Fit       0.004457
 **** Fit       0.004242
 **** Fit       0.004025
 **** Fit       0.003801
 **** Fit       0.003567
 **** Fit       0.003323
 **** Fit       0.003068
 **** Fit       0.002807
 **** Fit       0.002548
 **** Fit       0.002302
 **** Fit       0.002088
 **** Fit       0.001933
 **** Fit       0.005159
 **** Fit       0.004896
 **** Fit       0.004654
 **** Fit       0.004424
 **** Fit       0.004197
 **** Fit       0.003969
 **** Fit       0.003740
 **** Fit       0.003511
 **** Fit       0.003291
 **** Fit       0.003090
 **** Fit       0.002929
 **** Fit       0.002835
 **** Fit       0.005746
 **** Fit       0.005415
 **** Fit       0.005128
 **** Fit       0.004870
 **** Fit       0.004630
 **** Fit       0.004403
 **** Fit       0.004188
 **** Fit       0.003988
 **** Fit       0.003815
 **** Fit       0.003686
 **** Fit       0.003631
 **** Fit       0.003690
 **** Fit       0.005900
 **** Fit       0.005551
 **** Fit       0.005253
 **** Fit       0.004994
 **** Fit       0.004766
 **** Fit       0.004572
 **** Fit       0.004425
 **** Fit       0.004348
 **** Fit       0.004378
 **** Fit       0.004572
 **** Fit       0.006052
 **** Fit       0.005697
 **** Fit       0.005411
 **** Fit       0.005191
 **** Fit       0.005047
 **** Fit       0.005008
 **** Fit       0.005124
 **** Fit       0.006218
 **** Fit       0.005896
 **** Fit       0.005703
 **** Fit       0.005670
 **** Fit       0.005861
 **** Fit      -0.000199
 **** Fit      -0.000222
 **** Fit       0.000177
 **** Fit       0.000184
 **** Fit      -0.000175
 **** Fit      -0.000584
 **** Fit      -0.000626
 **** Fit      -0.000240
 **** Fit       0.000235
 **** Fit       0.000545
 **** Fit       0.000642
 **** Fit       0.000531
 **** Fit       0.000247
 **** Fit      -0.000154
 **** Fit      -0.000597
 **** Fit      -0.000980
 **** Fit      -0.001181
 **** Fit      -0.001102
 **** Fit      -0.000746
 **** Fit      -0.000248
 **** Fit       0.000259
 **** Fit       0.000654
 **** Fit       0.000908
 **** Fit       0.001018
 **** Fit       0.000992
 **** Fit       0.000846
 **** Fit       0.000595
 **** Fit       0.000261
 **** Fit      -0.000135
 **** Fit      -0.000569
 **** Fit      -0.001003
 **** Fit      -0.001388
 **** Fit      -0.001661
 **** Fit      -0.001759
 **** Fit      -0.001637
 **** Fit      -0.001297
 **** Fit      -0.000801
 **** Fit      -0.000240
 **** Fit       0.000295
 **** Fit       0.000733
 **** Fit       0.001056
 **** Fit       0.001267
 **** Fit       0.001372
 **** Fit       0.001379
 **** Fit       0.001297
 **** Fit       0.001134
 **** Fit       0.000902
 **** Fit       0.000609
 **** Fit       0.000265
 **** Fit      -0.000122
 **** Fit      -0.000541
 **** Fit      -0.000978
 **** Fit      -0.001411
 **** Fit      -0.001809
 **** Fit      -0.002133
 **** Fit      -0.002339
 **** Fit      -0.002384
 **** Fit      -0.002239
 **** Fit      -0.001903
 **** Fit      -0.001413
 **** Fit      -0.000832
 **** Fit      -0.000207
 **** Fit       0.000356
 **** Fit       0.000823
 **** Fit       0.001186
 **** Fit       0.001450
 **** Fit       0.001624
 **** Fit       0.001717
 **** Fit       0.001737
 **** Fit       0.001687
 **** Fit       0.001574
 **** Fit       0.001402
 **** Fit       0.001180
 **** Fit       0.000912
 **** Fit       0.000605
 **** Fit       0.000262
 **** Fit      -0.000114
 **** Fit      -0.000519
 **** Fit      -0.000946
 **** Fit      -0.001387
 **** Fit      -0.001827
 **** Fit      -0.002244
 **** Fit      -0.002612
 **** Fit      -0.002897
 **** Fit      -0.003063
 **** Fit      -0.003077
 **** Fit      -0.002918
 **** Fit      -0.002582
 **** Fit      -0.002090
 **** Fit      -0.001487
 **** Fit      -0.000838
 **** Fit       0.001332
 **** Fit       0.001626
 **** Fit       0.001839
 **** Fit       0.001981
 **** Fit       0.002061
 **** Fit       0.002084
 **** Fit       0.002052
 **** Fit       0.001967
 **** Fit       0.001833
 **** Fit       0.001654
 **** Fit       0.001436
 **** Fit       0.001184
 **** Fit       0.000902
 **** Fit       0.000591
 **** Fit       0.000253
 **** Fit      -0.000112
 **** Fit      -0.000503
 **** Fit      -0.000918
 **** Fit      -0.001354
 **** Fit      -0.001803
 **** Fit      -0.002255
 **** Fit      -0.002695
 **** Fit      -0.003102
 **** Fit      -0.003451
 **** Fit      -0.003713
 **** Fit      -0.003857
 **** Fit      -0.003856
 **** Fit      -0.003689
 **** Fit      -0.003349
 **** Fit      -0.002850
 **** Fit      -0.002225
 **** Fit       0.002083
 **** Fit       0.002247
 **** Fit       0.002355
 **** Fit       0.002414
 **** Fit       0.002427
 **** Fit       0.002395
 **** Fit       0.002316
 **** Fit       0.002192
 **** Fit       0.002026
 **** Fit       0.001824
 **** Fit       0.001592
 **** Fit       0.001333
 **** Fit       0.001051
 **** Fit       0.000747
 **** Fit       0.000420
 **** Fit       0.000070
 **** Fit      -0.000305
 **** Fit      -0.000705
 **** Fit      -0.001131
 **** Fit      -0.001579
 **** Fit      -0.002046
 **** Fit      -0.002524
 **** Fit      -0.003003
 **** Fit      -0.003468
 **** Fit      -0.003898
 **** Fit      -0.004270
 **** Fit      -0.004555
 **** Fit      -0.004725
 **** Fit      -0.004749
 **** Fit      -0.004606
 **** Fit      -0.004284
 **** Fit      -0.003785
 **** Fit       0.002527
 **** Fit       0.002647
 **** Fit       0.002743
 **** Fit       0.002669
 **** Fit       0.002553
 **** Fit       0.002395
 **** Fit       0.002202
 **** Fit       0.001980
 **** Fit       0.001734
 **** Fit       0.001470
 **** Fit       0.001188
 **** Fit       0.000890
 **** Fit       0.000574
 **** Fit       0.000238
 **** Fit      -0.000121
 **** Fit      -0.000503
 **** Fit      -0.000911
 **** Fit      -0.001346
 **** Fit      -0.001805
 **** Fit      -0.002288
 **** Fit      -0.002789
 **** Fit      -0.003300
 **** Fit      -0.003811
 **** Fit      -0.004307
 **** Fit      -0.004769
 **** Fit      -0.005173
 **** Fit      -0.005491
 **** Fit      -0.005695
 **** Fit      -0.005754
 **** Fit      -0.005644
 **** Fit      -0.005346
 **** Fit      -0.004856
 **** Fit       0.002586
 **** Fit       0.002366
 **** Fit       0.002124
 **** Fit       0.001866
 **** Fit       0.001596
 **** Fit       0.001315
 **** Fit       0.001022
 **** Fit       0.000715
 **** Fit       0.000392
 **** Fit       0.000049
 **** Fit      -0.000315
 **** Fit      -0.000704
 **** Fit      -0.001119
 **** Fit      -0.001561
 **** Fit      -0.002032
 **** Fit      -0.002528
 **** Fit      -0.003048
 **** Fit      -0.003588
 **** Fit      -0.004138
 **** Fit      -0.004688
 **** Fit      -0.005224
 **** Fit      -0.005727
 **** Fit      -0.006173
 **** Fit      -0.006535
 **** Fit      -0.006783
 **** Fit      -0.006888
 **** Fit      -0.006819
 **** Fit      -0.006556
 **** Fit       0.002260
 **** Fit       0.001990
 **** Fit       0.001714
 **** Fit       0.001433
 **** Fit       0.001144
 **** Fit       0.000846
 **** Fit       0.000535
 **** Fit       0.000207
 **** Fit      -0.000140
 **** Fit      -0.000509
 **** Fit      -0.000904
 **** Fit      -0.001325
 **** Fit      -0.001776
 **** Fit      -0.002256
 **** Fit      -0.002766
 **** Fit      -0.003304
 **** Fit      -0.003867
 **** Fit      -0.004451
 **** Fit      -0.005047
 **** Fit      -0.005645
 **** Fit      -0.006230
 **** Fit      -0.006784
 **** Fit      -0.007283
 **** Fit      -0.007701
 **** Fit      -0.008007
 **** Fit      -0.008168
 **** Fit      -0.008154
 **** Fit       0.002285
 **** Fit       0.001998
 **** Fit       0.001712
 **** Fit       0.001425
 **** Fit       0.001134
 **** Fit       0.000835
 **** Fit       0.000524
 **** Fit       0.000197
 **** Fit      -0.000148
 **** Fit      -0.000517
 **** Fit      -0.000910
 **** Fit      -0.001332
 **** Fit      -0.001784
 **** Fit      -0.002269
 **** Fit      -0.002786
 **** Fit      -0.003337
 **** Fit      -0.003920
 **** Fit      -0.004533
 **** Fit      -0.005172
 **** Fit      -0.005830
 **** Fit      -0.006496
 **** Fit      -0.007157
 **** Fit      -0.007794
 **** Fit      -0.008386
 **** Fit      -0.008903
 **** Fit      -0.009314
 **** Fit       0.001121
 **** Fit       0.000824
 **** Fit       0.000515
 **** Fit       0.000191
 **** Fit      -0.000152
 **** Fit      -0.000518
 **** Fit      -0.000909
 **** Fit      -0.001330
 **** Fit      -0.001781
 **** Fit      -0.002267
 **** Fit      -0.002788
 **** Fit      -0.003346
 **** Fit      -0.003942
 **** Fit      -0.004575
 **** Fit      -0.005243
 **** Fit      -0.005944
 **** Fit      -0.006670
 **** Fit      -0.007412
 **** Fit      -0.008158
 **** Fit      -0.008891
 **** Fit      -0.009586
 **** Fit      -0.010218
 **** Fit       0.000027
 **** Fit      -0.000328
 **** Fit      -0.000709
 **** Fit      -0.001118
 **** Fit      -0.001559
 **** Fit      -0.002035
 **** Fit      -0.002548
 **** Fit      -0.003101
 **** Fit      -0.003696
 **** Fit      -0.004335
 **** Fit      -0.005018
 **** Fit      -0.005744
 **** Fit      -0.006511
 **** Fit      -0.007315
 **** Fit      -0.008148
 **** Fit      -0.009000
 **** Fit      -0.009855
 **** Fit      -0.010691
 -----------------------------------------------------------------
 Leave Link  602 at Wed Mar 31 17:06:15 2021, MaxMem=   134217728 cpu:               7.6 elap:               7.6
 (Enter /home1/apps/gaussian/16rA.03/g16/l9999.exe)

 Test job not archived.
 1\1\GINC-C401-011\SP\RHF\6-31G(d)\C4H9N1\TG455515\31-Mar-2021\0\\#P HF
 /6-31G* SCF=Tight Pop=MK IOp(6/33=2,6/41=10,6/42=17)\\<qmtool> simtype
 ="ESP Calculation" </qmtool>\\0,1\N,0,0.84399998,0.456,0.92299998\H,0,
 1.37199998,0.495,1.79799998\C,0,1.64300001,1.125,-0.113\H,0,2.,2.09699
 988,0.243\H,0,0.98699999,1.30700004,-0.97100002\C,0,2.77900004,0.153,-
 0.50400001\H,0,3.68899989,0.384,0.059\H,0,3.0309999,0.222,-1.56599998\
 C,0,2.23099995,-1.24000001,-0.112\H,0,2.86599994,-1.70700002,0.6470000
 1\H,0,2.18499994,-1.92799997,-0.96200001\C,0,0.82999998,-0.94099998,0.
 46900001\H,0,0.542,-1.60899997,1.28600001\H,0,0.068,-1.02699995,-0.314
 00001\\Version=ES64L-G16RevA.03\State=1-A\HF=-211.1432001\RMSD=3.851e-
 09\Dipole=0.5623218,-0.234001,-0.0457545\Quadrupole=-2.0005313,0.38624
 33,1.6142881,1.7189014,1.6162351,-0.5259753\PG=C01 [X(C4H9N1)]\\@


 EDUCATION IS NOT TRAINING BUT RATHER THE PROCESS THAT EQUIPS YOU TO
 ENTERTAIN YOURSELF, A FRIEND, OR AN IDEA.  -- WALLACE STERLING
 Job cpu time:       0 days  0 hours  0 minutes 20.7 seconds.
 Elapsed time:       0 days  0 hours  0 minutes 20.8 seconds.
 File lengths (MBytes):  RWF=     10 Int=      0 D2E=      0 Chk=      2 Scr=      1
 Normal termination of Gaussian 16 at Wed Mar 31 17:06:15 2021.
