
    -----------------------------------------------------------------------
          Psi4: An Open-Source Ab Initio Electronic Structure Package
                               Psi4 1.4rc2.dev14 

                         Git: Rev {master} 3d2403c 


    D. G. A. Smith, L. A. Burns, A. C. Simmonett, R. M. Parrish,
    M. C. Schieber, R. Galvelis, P. Kraus, H. Kruse, R. Di Remigio,
    A. Alenaizan, A. M. James, S. Lehtola, J. P. Misiewicz, M. Scheurer,
    R. A. Shaw, J. B. Schriber, Y. Xie, Z. L. Glick, D. A. Sirianni,
    J. S. O'Brien, J. M. Waldrop, A. Kumar, E. G. Hohenstein,
    B. P. Pritchard, B. R. Brooks, H. F. Schaefer III, A. Yu. Sokolov,
    K. Patkowski, A. E. DePrince III, U. Bozkaya, R. A. King,
    F. A. Evangelista, J. M. Turney, T. D. Crawford, C. D. Sherrill,
    J. Chem. Phys. 152(18) 184108 (2020). https://doi.org/10.1063/5.0006002

                            Additional Code Authors
    E. T. Seidl, C. L. Janssen, E. F. Valeev, M. L. Leininger,
    J. F. Gonthier, R. M. Richard, H. R. McAlexander, M. Saitow, X. Wang,
    P. Verma, and M. H. Lechner

             Previous Authors, Complete List of Code Contributors,
                       and Citations for Specific Modules
    https://github.com/psi4/psi4/blob/master/codemeta.json
    https://github.com/psi4/psi4/graphs/contributors
    http://psicode.org/psi4manual/master/introduction.html#citing-psifour

    -----------------------------------------------------------------------


    Psi4 started on: Tuesday, 13 April 2021 02:26PM

    Process ID: 9526
    Host:       ds10
    PSIDATADIR: /theoryfs2/ds/glick/gits/psi4/objdir37/stage/share/psi4
    Memory:     500.0 MiB
    Threads:    6
    
  ==> Input File <==

--------------------------------------------------------------------------
memory 1GB

molecule mol {
0 1
N1       0.70899999       0.46399999       0.75800002
H2       0.88200003       0.66799998       1.72200000
C3       1.72599995       1.17299998      -0.11800000
H4       2.16199994       1.91499996       0.39100000
H5       1.27800000       1.55299997      -0.92699999
C6       2.76200008       0.13900000      -0.52800000
H7       3.62599993       0.31400001      -0.05500000
H8       2.91700006       0.18300000      -1.51499999
C9       2.22300005      -1.23300004      -0.14300001
H10       2.84400010      -1.67700005       0.50300002
H11       2.13400006      -1.80799997      -0.95599997
C12       0.86100000      -1.02600002       0.50099999
H13       0.80599999      -1.53199995       1.36199999
H14       0.13800000      -1.34599996      -0.11100000
}

set {
mp2_type df
}

optimize("MP2/6-31G*")
--------------------------------------------------------------------------

  Memory set to 953.674 MiB by Python driver.

Scratch directory: /scratch/glick/

Scratch directory: /scratch/glick/
gradient() will perform analytic gradient computation.
    SCF Algorithm Type (re)set to DF.

*** tstart() called on ds10
*** at Tue Apr 13 14:26:34 2021

   => Loading Basis Set <=

    Name: 6-31G*
    Role: ORBITAL
    Keyword: BASIS
    atoms 1                         entry N          line   128 file /theoryfs2/ds/glick/gits/psi4/objdir37/stage/share/psi4/basis/6-31gs.gbs 
    atoms 2, 4-5, 7-8, 10-11, 13-14 entry H          line    44 file /theoryfs2/ds/glick/gits/psi4/objdir37/stage/share/psi4/basis/6-31gs.gbs 
    atoms 3, 6, 9, 12               entry C          line   111 file /theoryfs2/ds/glick/gits/psi4/objdir37/stage/share/psi4/basis/6-31gs.gbs 


         ---------------------------------------------------------
                                   SCF
               by Justin Turney, Rob Parrish, Andy Simmonett
                          and Daniel G. A. Smith
                              RHF Reference
                        6 Threads,    953 MiB Core
         ---------------------------------------------------------

  ==> Geometry <==

    Molecular point group: c1
    Full point group: C1

    Geometry (in Angstrom), charge = 0, multiplicity = 1:

       Center              X                  Y                   Z               Mass       
    ------------   -----------------  -----------------  -----------------  -----------------
         N           -0.947180448341     0.557003882357     0.651412194236    14.003074004430
         H           -0.774180408341     0.761003872357     1.615412174236     1.007825032230
         C            0.069819511659     1.266003872357    -0.224587825764    12.000000000000
         H            0.505819501659     2.008003852357     0.284412174236     1.007825032230
         H           -0.378180438341     1.646003862357    -1.033587815764     1.007825032230
         C            1.105819641659     0.232003892357    -0.634587825764    12.000000000000
         H            1.969819491659     0.407003902357    -0.161587825764     1.007825032230
         H            1.260819621659     0.276003892357    -1.621587815764     1.007825032230
         C            0.566819611659    -1.139996147643    -0.249587835764    12.000000000000
         H            1.187819661659    -1.583996157643     0.396412194236     1.007825032230
         H            0.477819621659    -1.714996077643    -1.062587795764     1.007825032230
         C           -0.795180438341    -0.932996127643     0.394412164236    12.000000000000
         H           -0.850180448341    -1.438996057643     1.255412164236     1.007825032230
         H           -1.518180438341    -1.252996067643    -0.217587825764     1.007825032230

  Running in c1 symmetry.

  Rotational constants: A =      0.23052  B =      0.22732  C =      0.12626 [cm^-1]
  Rotational constants: A =   6910.87516  B =   6814.94303  C =   3785.21196 [MHz]
  Nuclear repulsion =  192.010813357984347

  Charge       = 0
  Multiplicity = 1
  Electrons    = 40
  Nalpha       = 20
  Nbeta        = 20

  ==> Algorithm <==

  SCF Algorithm Type is DF.
  DIIS enabled.
  MOM disabled.
  Fractional occupation disabled.
  Guess Type is SAD.
  Energy threshold   = 1.00e-10
  Density threshold  = 1.00e-10
  Integral threshold = 1.00e-12

  ==> Primary Basis <==

  Basis Set: 6-31G*
    Blend: 6-31G*
    Number of shells: 48
    Number of basis functions: 93
    Number of Cartesian functions: 93
    Spherical Harmonics?: false
    Max angular momentum: 2

   => Loading Basis Set <=

    Name: (6-31G* AUX)
    Role: JKFIT
    Keyword: DF_BASIS_SCF
    atoms 1                         entry N          line   171 file /theoryfs2/ds/glick/gits/psi4/objdir37/stage/share/psi4/basis/cc-pvdz-jkfit.gbs 
    atoms 2, 4-5, 7-8, 10-11, 13-14 entry H          line    51 file /theoryfs2/ds/glick/gits/psi4/objdir37/stage/share/psi4/basis/cc-pvdz-jkfit.gbs 
    atoms 3, 6, 9, 12               entry C          line   121 file /theoryfs2/ds/glick/gits/psi4/objdir37/stage/share/psi4/basis/cc-pvdz-jkfit.gbs 

  ==> Integral Setup <==

  DFHelper Memory: AOs need 0.046 GiB; user supplied 0.698 GiB. Using in-core AOs.

  ==> MemDFJK: Density-Fitted J/K Matrices <==

    J tasked:                   Yes
    K tasked:                   Yes
    wK tasked:                   No
    OpenMP threads:               6
    Memory [MiB]:               715
    Algorithm:                 Core
    Schwarz Cutoff:           1E-12
    Mask sparsity (%):       0.1156
    Fitting Condition:        1E-10

   => Auxiliary Basis Set <=

  Basis Set: (6-31G* AUX)
    Blend: CC-PVDZ-JKFIT
    Number of shells: 201
    Number of basis functions: 630
    Number of Cartesian functions: 630
    Spherical Harmonics?: false
    Max angular momentum: 3

  Minimum eigenvalue in the overlap matrix is 3.1070050410E-03.
  Reciprocal condition number of the overlap matrix is 3.9330641987E-04.
    Using symmetric orthogonalization.

  ==> Pre-Iterations <==

  SCF Guess: Superposition of Atomic Densities via on-the-fly atomic UHF (no occupation information).

   -------------------------
    Irrep   Nso     Nmo    
   -------------------------
     A         93      93 
   -------------------------
    Total      93      93
   -------------------------

  ==> Iterations <==

                           Total Energy        Delta E     RMS |[F,P]|

   @DF-RHF iter SAD:  -210.92383508330931   -2.10924e+02   0.00000e+00 
   @DF-RHF iter   1:  -210.98159989659186   -5.77648e-02   4.53597e-03 DIIS
   @DF-RHF iter   2:  -211.07471175542611   -9.31119e-02   1.84688e-03 DIIS
   @DF-RHF iter   3:  -211.08846185327266   -1.37501e-02   4.59655e-04 DIIS
   @DF-RHF iter   4:  -211.08975025193033   -1.28840e-03   9.25925e-05 DIIS
   @DF-RHF iter   5:  -211.08979942736008   -4.91754e-05   3.04236e-05 DIIS
   @DF-RHF iter   6:  -211.08980469466013   -5.26730e-06   6.05289e-06 DIIS
   @DF-RHF iter   7:  -211.08980503801007   -3.43350e-07   1.08437e-06 DIIS
   @DF-RHF iter   8:  -211.08980505348649   -1.54764e-08   2.96592e-07 DIIS
   @DF-RHF iter   9:  -211.08980505478362   -1.29714e-09   9.11808e-08 DIIS
   @DF-RHF iter  10:  -211.08980505491303   -1.29404e-10   2.09632e-08 DIIS
   @DF-RHF iter  11:  -211.08980505491866   -5.62750e-12   6.63140e-09 DIIS
   @DF-RHF iter  12:  -211.08980505491900   -3.41061e-13   1.95303e-09 DIIS
   @DF-RHF iter  13:  -211.08980505491917   -1.70530e-13   3.67328e-10 DIIS
   @DF-RHF iter  14:  -211.08980505491908    8.52651e-14   8.15317e-11 DIIS
  Energy and wave function converged.


  ==> Post-Iterations <==

    Orbital Energies [Eh]
    ---------------------

    Doubly Occupied:                                                      

       1A    -15.528592     2A    -11.214624     3A    -11.214348  
       4A    -11.185640     5A    -11.185026     6A     -1.187400  
       7A     -1.035580     8A     -0.995505     9A     -0.835022  
      10A     -0.806840    11A     -0.691497    12A     -0.656138  
      13A     -0.613470    14A     -0.585765    15A     -0.506593  
      16A     -0.502547    17A     -0.484103    18A     -0.480527  
      19A     -0.475466    20A     -0.358205  

    Virtual:                                                              

      21A      0.223126    22A      0.266565    23A      0.295339  
      24A      0.297898    25A      0.329681    26A      0.341500  
      27A      0.344531    28A      0.351464    29A      0.368717  
      30A      0.397656    31A      0.438948    32A      0.449408  
      33A      0.502834    34A      0.558273    35A      0.685118  
      36A      0.763913    37A      0.777668    38A      0.778912  
      39A      0.804423    40A      0.846793    41A      0.912422  
      42A      0.919964    43A      0.940321    44A      0.952305  
      45A      1.019877    46A      1.045334    47A      1.104188  
      48A      1.158421    49A      1.170062    50A      1.218700  
      51A      1.220060    52A      1.234410    53A      1.237643  
      54A      1.263374    55A      1.289468    56A      1.308160  
      57A      1.336567    58A      1.349861    59A      1.366342  
      60A      1.519222    61A      1.566435    62A      1.599845  
      63A      1.785200    64A      1.994783    65A      2.028954  
      66A      2.103347    67A      2.109820    68A      2.119250  
      69A      2.135090    70A      2.251867    71A      2.347778  
      72A      2.370744    73A      2.387106    74A      2.446911  
      75A      2.494491    76A      2.515129    77A      2.594356  
      78A      2.613593    79A      2.658699    80A      2.720955  
      81A      2.784870    82A      2.914040    83A      2.970436  
      84A      2.989846    85A      3.034225    86A      3.054120  
      87A      3.084092    88A      3.267361    89A      4.331407  
      90A      4.669030    91A      4.741173    92A      4.916862  
      93A      5.047687  

    Final Occupation by Irrep:
              A 
    DOCC [    20 ]

  @DF-RHF Final Energy:  -211.08980505491908

   => Energetics <=

    Nuclear Repulsion Energy =            192.0108133579843468
    One-Electron Energy =                -665.1154603139366372
    Two-Electron Energy =                 262.0148419010332077
    Total Energy =                       -211.0898050549190543

Computation Completed


Properties will be evaluated at   0.000000,   0.000000,   0.000000 [a0]

Properties computed using the SCF density matrix

  Nuclear Dipole Moment: [e a0]
     X:     1.7665      Y:    -0.8387      Z:    -0.5131

  Electronic Dipole Moment: [e a0]
     X:    -1.1490      Y:     0.6248      Z:     0.6181

  Dipole Moment: [e a0]
     X:     0.6175      Y:    -0.2140      Z:     0.1050     Total:     0.6619

  Dipole Moment: [D]
     X:     1.5694      Y:    -0.5439      Z:     0.2669     Total:     1.6823


*** tstop() called on ds10 at Tue Apr 13 14:26:35 2021
Module time:
	user time   =       3.05 seconds =       0.05 minutes
	system time =       0.20 seconds =       0.00 minutes
	total time  =          1 seconds =       0.02 minutes
Total time:
	user time   =       3.05 seconds =       0.05 minutes
	system time =       0.20 seconds =       0.00 minutes
	total time  =          1 seconds =       0.02 minutes

*** tstart() called on ds10
*** at Tue Apr 13 14:26:35 2021


  //>>>>>>>>>>>>>>>>>>>>>>>>>>>>>>>>>>>//
  //               DFMP2               //
  //<<<<<<<<<<<<<<<<<<<<<<<<<<<<<<<<<<<//

   => Loading Basis Set <=

    Name: (6-31G* AUX)
    Role: RIFIT
    Keyword: DF_BASIS_MP2
    atoms 1                         entry N          line   197 file /theoryfs2/ds/glick/gits/psi4/objdir37/stage/share/psi4/basis/cc-pvdz-ri.gbs 
    atoms 2, 4-5, 7-8, 10-11, 13-14 entry H          line    19 file /theoryfs2/ds/glick/gits/psi4/objdir37/stage/share/psi4/basis/cc-pvdz-ri.gbs 
    atoms 3, 6, 9, 12               entry C          line   159 file /theoryfs2/ds/glick/gits/psi4/objdir37/stage/share/psi4/basis/cc-pvdz-ri.gbs 

	 --------------------------------------------------------
	                          DF-MP2                         
	      2nd-Order Density-Fitted Moller-Plesset Theory     
	              RMP2 Wavefunction,   6 Threads             
	                                                         
	        Rob Parrish, Justin Turney, Andy Simmonett,      
	           Ed Hohenstein, and C. David Sherrill          
	 --------------------------------------------------------

   => Auxiliary Basis Set <=

  Basis Set: (6-31G* AUX)
    Blend: CC-PVDZ-RI
    Number of shells: 144
    Number of basis functions: 406
    Number of Cartesian functions: 465
    Spherical Harmonics?: true
    Max angular momentum: 3

	 --------------------------------------------------------
	                 NBF =    93, NAUX =   406
	 --------------------------------------------------------
	   CLASS    FOCC     OCC    AOCC    AVIR     VIR    FVIR
	   PAIRS       0      20      20      73      73       0
	 --------------------------------------------------------

  DFHelper Memory: AOs need 0.046 GiB; user supplied 0.698 GiB. Using in-core AOs.


         ------------------------------------------------------------
                                     CPHF                           
                                  Rob Parrish                       
         ------------------------------------------------------------

  ==> Geometry <==

    Molecular point group: c1
    Full point group: C1

    Geometry (in Angstrom), charge = 0, multiplicity = 1:

       Center              X                  Y                   Z               Mass       
    ------------   -----------------  -----------------  -----------------  -----------------
         N           -0.947180448341     0.557003882357     0.651412194236    14.003074004430
         H           -0.774180408341     0.761003872357     1.615412174236     1.007825032230
         C            0.069819511659     1.266003872357    -0.224587825764    12.000000000000
         H            0.505819501659     2.008003852357     0.284412174236     1.007825032230
         H           -0.378180438341     1.646003862357    -1.033587815764     1.007825032230
         C            1.105819641659     0.232003892357    -0.634587825764    12.000000000000
         H            1.969819491659     0.407003902357    -0.161587825764     1.007825032230
         H            1.260819621659     0.276003892357    -1.621587815764     1.007825032230
         C            0.566819611659    -1.139996147643    -0.249587835764    12.000000000000
         H            1.187819661659    -1.583996157643     0.396412194236     1.007825032230
         H            0.477819621659    -1.714996077643    -1.062587795764     1.007825032230
         C           -0.795180438341    -0.932996127643     0.394412164236    12.000000000000
         H           -0.850180448341    -1.438996057643     1.255412164236     1.007825032230
         H           -1.518180438341    -1.252996067643    -0.217587825764     1.007825032230

  Nuclear repulsion =  192.010813357984347
  Reference energy  = -211.089805054919083

  ==> Basis Set <==

  Basis Set: 6-31G*
    Blend: 6-31G*
    Number of shells: 48
    Number of basis functions: 93
    Number of Cartesian functions: 93
    Spherical Harmonics?: false
    Max angular momentum: 2

  ==> CGRSolver (by Rob Parrish) <==

   Number of roots    =         1
   Preconditioning    =    JACOBI
   Convergence cutoff =     1E-06
   Maximum iterations =       100

  ==> CPHFRHamiltonian (by Rob Parrish) <== 

  ==> MemDFJK: Density-Fitted J/K Matrices <==

    J tasked:                   Yes
    K tasked:                   Yes
    wK tasked:                   No
    OpenMP threads:               6
    Memory [MiB]:               715
    Algorithm:                 Core
    Schwarz Cutoff:           1E-12
    Mask sparsity (%):       0.1156
    Fitting Condition:        1E-10

   => Auxiliary Basis Set <=

  Basis Set: (6-31G* AUX)
    Blend: CC-PVDZ-JKFIT
    Number of shells: 201
    Number of basis functions: 630
    Number of Cartesian functions: 630
    Spherical Harmonics?: false
    Max angular momentum: 3

  ==> CPHF Iterations <==

  => Iterations <=

             Iter  Converged  Remaining    Residual
  CGR           1          0          1   8.120E-02
  CGR           2          0          1   1.127E-02
  CGR           3          0          1   2.644E-03
  CGR           4          0          1   8.553E-04
  CGR           5          0          1   3.304E-04
  CGR           6          0          1   7.462E-05
  CGR           7          0          1   2.354E-05
  CGR           8          0          1   5.855E-06
  CGR           9          0          1   1.124E-06
  CGR          10          1          0   2.919E-07

    CGRSolver converged.

  ==> DFCorrGrad: Density-Fitted Correlated Gradients <==

    OpenMP threads:              6
    Integrals threads:           6
    Memory [GiB]:            0.698
    Schwarz Cutoff:          0E+00
    Fitting Condition:       1E-10

   => Auxiliary Basis Set <=

  Basis Set: (6-31G* AUX)
    Blend: CC-PVDZ-JKFIT
    Number of shells: 201
    Number of basis functions: 630
    Number of Cartesian functions: 630
    Spherical Harmonics?: false
    Max angular momentum: 3

	-----------------------------------------------------------
	 ==================> DF-MP2 Energies <==================== 
	-----------------------------------------------------------
	 Reference Energy          =    -211.0898050549190827 [Eh]
	 Singles Energy            =      -0.0000000000000000 [Eh]
	 Same-Spin Energy          =      -0.1715498878629442 [Eh]
	 Opposite-Spin Energy      =      -0.5247138015914532 [Eh]
	 Correlation Energy        =      -0.6962636894543974 [Eh]
	 Total Energy              =    -211.7860687443734662 [Eh]
	-----------------------------------------------------------
	 ================> DF-SCS-MP2 Energies <================== 
	-----------------------------------------------------------
	 SCS Same-Spin Scale       =       0.3333333333333333 [-]
	 SCS Opposite-Spin Scale   =       1.2000000000000000 [-]
	 SCS Same-Spin Energy      =      -0.0571832959543147 [Eh]
	 SCS Opposite-Spin Energy  =      -0.6296565619097438 [Eh]
	 SCS Correlation Energy    =      -0.6868398578640585 [Eh]
	 SCS Total Energy          =    -211.7766449127831550 [Eh]
	-----------------------------------------------------------


  -Total Gradient:
     Atom            X                  Y                   Z
    ------   -----------------  -----------------  -----------------
       1       -0.004230234311     0.011332994813     0.032079889679
       2       -0.007571118656    -0.000753911048    -0.013745519985
       3        0.015525151802     0.098117501641    -0.040956562220
       4       -0.031160475068    -0.062897553053    -0.043662997883
       5        0.041993852380    -0.029983288840     0.064490842424
       6        0.069287086099     0.015620268209    -0.034353524395
       7       -0.071154360500    -0.013729980417    -0.037076970328
       8       -0.015870890782    -0.004488968252     0.080547571284
       9        0.036432430591    -0.070446505160    -0.010778691543
      10       -0.051426729632     0.037212017334    -0.051601333944
      11        0.005588459075     0.049710037502     0.065639116937
      12       -0.058504435915    -0.089537778677     0.011536888560
      13        0.008895788485     0.038713319821    -0.072085828564
      14        0.062195476430     0.021131846128     0.049967119979


*** tstop() called on ds10 at Tue Apr 13 14:26:36 2021
Module time:
	user time   =       6.97 seconds =       0.12 minutes
	system time =       0.25 seconds =       0.00 minutes
	total time  =          1 seconds =       0.02 minutes
Total time:
	user time   =      10.02 seconds =       0.17 minutes
	system time =       0.45 seconds =       0.01 minutes
	total time  =          2 seconds =       0.03 minutes

			-----------------------------------------
			 OPTKING 2.0: for geometry optimizations 
			  - R.A. King,  Bethel University        
			-----------------------------------------

	Internal coordinates to be generated automatically.
	Detected frag 1 with atoms:  1 2 3 4 5 6 7 8 9 10 11 12 13 14
	---Fragment 1 Bond Connectivity---
	 1 : 2 3 12
	 2 : 1
	 3 : 1 4 5 6
	 4 : 3
	 5 : 3
	 6 : 3 7 8 9
	 7 : 6
	 8 : 6
	 9 : 6 10 11 12
	 10 : 9
	 11 : 9
	 12 : 1 9 13 14
	 13 : 12
	 14 : 12

	---Fragment 1 Geometry and Gradient---
	 N          -1.7899116388        1.0525847885        1.2309906419
	 H          -1.4629889435        1.4380888992        3.0526865890
	 C           0.1319397552        2.3924005925       -0.4244094818
	 H           0.9558603271        3.7945773398        0.5374611161
	 H          -0.7146574545        3.1104965013       -1.9531978984
	 C           2.0896962669        0.4384238166       -1.1991971932
	 H           3.7224193558        0.7691259074       -0.3053567359
	 H           2.3826037785        0.5215717661       -3.0643568602
	 C           1.0711338286       -2.1542805031       -0.4716526538
	 H           2.2446538470       -2.9933189217        0.7491104799
	 H           0.9029482223       -3.2408728930       -2.0079999182
	 C          -1.5026732488       -1.7631071574        0.7453309710
	 H          -1.6066082046       -2.7193084446        2.3723851650
	 H          -2.8689452375       -2.3678194041       -0.4111813989
	            -0.0042302343        0.0113329948        0.0320798897
	            -0.0075711187       -0.0007539110       -0.0137455200
	             0.0155251518        0.0981175016       -0.0409565622
	            -0.0311604751       -0.0628975531       -0.0436629979
	             0.0419938524       -0.0299832888        0.0644908424
	             0.0692870861        0.0156202682       -0.0343535244
	            -0.0711543605       -0.0137299804       -0.0370769703
	            -0.0158708908       -0.0044889683        0.0805475713
	             0.0364324306       -0.0704465052       -0.0107786915
	            -0.0514267296        0.0372120173       -0.0516013339
	             0.0055884591        0.0497100375        0.0656391169
	            -0.0585044359       -0.0895377787        0.0115368886
	             0.0088957885        0.0387133198       -0.0720858286
	             0.0621954764        0.0211318461        0.0499671200

	Previous optimization step data not found.  Starting new optimization.

	---Fragment 1 Intrafragment Coordinates---
	 - Coordinate -           - BOHR/RAD -       - ANG/DEG -
	 R(1,2)           =         1.890521	       1.000420
	 R(1,3)           =         2.868618	       1.518007
	 R(1,12)          =         2.871671	       1.519623
	 R(3,4)           =         1.889481	       0.999870
	 R(3,5)           =         1.889334	       0.999792
	 R(3,6)           =         2.872478	       1.520050
	 R(6,7)           =         1.890529	       1.000425
	 R(6,8)           =         1.889849	       1.000065
	 R(6,9)           =         2.879046	       1.523526
	 R(9,10)          =         1.889814	       1.000047
	 R(9,11)          =         1.889268	       0.999757
	 R(9,12)          =         2.873769	       1.520733
	 R(12,13)         =         1.890087	       1.000191
	 R(12,14)         =         1.889417	       0.999836
	 B(1,3,4)         =         1.923008	     110.180239
	 B(1,3,5)         =         1.922252	     110.136926
	 B(1,3,6)         =         1.869784	     107.130753
	 B(1,12,9)        =         1.869905	     107.137679
	 B(1,12,13)       =         1.922988	     110.179103
	 B(1,12,14)       =         1.923038	     110.181950
	 B(2,1,3)         =         1.923003	     110.179959
	 B(2,1,12)        =         1.923681	     110.218813
	 B(3,1,12)        =         1.868523	     107.058485
	 B(3,6,7)         =         1.919943	     110.004626
	 B(3,6,8)         =         1.919745	     109.993280
	 B(3,6,9)         =         1.878951	     107.655946
	 B(4,3,5)         =         1.902082	     108.981244
	 B(4,3,6)         =         1.922946	     110.176678
	 B(5,3,6)         =         1.923771	     110.223960
	 B(6,9,10)        =         1.921300	     110.082393
	 B(6,9,11)        =         1.921900	     110.116770
	 B(6,9,12)        =         1.876843	     107.535166
	 B(7,6,8)         =         1.901884	     108.969926
	 B(7,6,9)         =         1.921534	     110.095766
	 B(8,6,9)         =         1.921817	     110.111999
	 B(9,12,13)       =         1.922964	     110.177739
	 B(9,12,14)       =         1.922889	     110.173402
	 B(10,9,11)       =         1.902052	     108.979558
	 B(10,9,12)       =         1.920940	     110.061776
	 B(11,9,12)       =         1.920831	     110.055506
	 B(13,12,14)      =         1.902060	     108.980003
	 D(1,3,6,7)       =        -1.895751	    -108.618517
	 D(1,3,6,8)       =         2.292358	     131.342451
	 D(1,3,6,9)       =         0.198189	      11.355416
	 D(1,12,9,6)      =        -0.196585	     -11.263503
	 D(1,12,9,10)     =         1.896375	     108.654274
	 D(1,12,9,11)     =        -2.290208	    -131.219268
	 D(2,1,3,4)       =        -0.320006	     -18.334991
	 D(2,1,3,5)       =        -2.418865	    -138.590777
	 D(2,1,3,6)       =         1.771873	     101.520859
	 D(2,1,12,9)      =        -1.771881	    -101.521304
	 D(2,1,12,13)     =         0.320082	      18.339344
	 D(2,1,12,14)     =         2.419405	     138.621668
	 D(3,1,12,9)      =         0.319691	      18.316918
	 D(3,1,12,13)     =         2.411653	     138.177566
	 D(3,1,12,14)     =        -1.772209	    -101.540110
	 D(3,6,9,10)      =        -2.093595	    -119.954151
	 D(3,6,9,11)      =         2.092081	     119.867395
	 D(3,6,9,12)      =        -0.000863	      -0.049468
	 D(4,3,1,12)      =        -2.412012	    -138.198122
	 D(4,3,6,7)       =         0.196168	      11.239613
	 D(4,3,6,8)       =        -1.898908	    -108.799419
	 D(4,3,6,9)       =         2.290108	     131.213546
	 D(5,3,1,12)      =         1.772314	     101.546092
	 D(5,3,6,7)       =         2.295960	     131.548838
	 D(5,3,6,8)       =         0.200884	      11.509805
	 D(5,3,6,9)       =        -1.893285	    -108.477229
	 D(6,3,1,12)      =        -0.320133	     -18.342272
	 D(6,9,12,13)     =        -2.288563	    -131.125023
	 D(6,9,12,14)     =         1.895410	     108.598997
	 D(7,6,9,10)      =        -0.000663	      -0.037959
	 D(7,6,9,11)      =        -2.098172	    -120.216413
	 D(7,6,9,12)      =         2.092069	     119.866724
	 D(8,6,9,10)      =         2.096734	     120.134024
	 D(8,6,9,11)      =        -0.000775	      -0.044431
	 D(8,6,9,12)      =        -2.093720	    -119.961294
	 D(10,9,12,13)    =        -0.195603	     -11.207246
	 D(10,9,12,14)    =        -2.294815	    -131.483226
	 D(11,9,12,13)    =         1.900999	     108.919211
	 D(11,9,12,14)    =        -0.198213	     -11.356769

	Current energy   :      -211.7860687444

	Generating empirical Hessian (Schlegel '84) for each fragment.
	Taking RFO optimization step.
	Going to follow RFO solution 1.
	Using RFO vector 1.
	Norm of target step-size    0.42659
	Projected energy change by RFO approximation:        -0.0848455098

	Back-transformation to cartesian coordinates...
	Successfully converged to displaced geometry.

	--- Internal Coordinate Step in ANG or DEG, aJ/ANG or AJ/DEG ---
	 ---------------------------------------------------------------------------
	   Coordinate                Previous        Force       Change         New 
	   ----------                --------       ------       ------       ------
	    1 R(1,2)          =      1.000420     0.121176     0.013508     1.013928
	    2 R(1,3)          =      1.518007    -0.183616    -0.029991     1.488016
	    3 R(1,12)         =      1.519623    -0.190776    -0.031275     1.488348
	    4 R(3,4)          =      0.999870     0.679621     0.075633     1.075503
	    5 R(3,5)          =      0.999792     0.678847     0.075529     1.075321
	    6 R(3,6)          =      1.520050     0.130730     0.021164     1.541214
	    7 R(6,7)          =      1.000425     0.670491     0.074743     1.075168
	    8 R(6,8)          =      1.000065     0.676833     0.075367     1.075432
	    9 R(6,9)          =      1.523526     0.089976     0.015609     1.539134
	   10 R(9,10)         =      1.000047     0.673835     0.075029     1.075076
	   11 R(9,11)         =      0.999757     0.679408     0.075583     1.075340
	   12 R(9,12)         =      1.520733     0.128220     0.020775     1.541509
	   13 R(12,13)        =      1.000191     0.676633     0.075374     1.075565
	   14 R(12,14)        =      0.999836     0.678235     0.075471     1.075307
	   15 B(1,3,4)        =    110.180239    -0.000280    -1.001614   109.178625
	   16 B(1,3,5)        =    110.136926    -0.000400    -1.326388   108.810539
	   17 B(1,3,6)        =    107.130753     0.000430     0.974842   108.105595
	   18 B(1,12,9)       =    107.137679     0.000430     0.965380   108.103058
	   19 B(1,12,13)      =    110.179103    -0.000283    -1.008216   109.170887
	   20 B(1,12,14)      =    110.181950    -0.000407    -1.358869   108.823081
	   21 B(2,1,3)        =    110.179959    -0.000181    -0.538038   109.641921
	   22 B(2,1,12)       =    110.218813    -0.000189    -0.577897   109.640916
	   23 B(3,1,12)       =    107.058485     0.000459     0.690318   107.748803
	   24 B(3,6,7)        =    110.004626     0.000227     0.472522   110.477148
	   25 B(3,6,8)        =    109.993280     0.000228     0.542330   110.535610
	   26 B(3,6,9)        =    107.655946    -0.000670    -1.350272   106.305675
	   27 B(4,3,5)        =    108.981244     0.000036    -0.060058   108.921186
	   28 B(4,3,6)        =    110.176678     0.000093     0.740750   110.917428
	   29 B(5,3,6)        =    110.223960     0.000120     0.640941   110.864901
	   30 B(6,9,10)       =    110.082393     0.000156     0.300171   110.382564
	   31 B(6,9,11)       =    110.116770     0.000245     0.527415   110.644185
	   32 B(6,9,12)       =    107.535166    -0.000627    -1.251061   106.284105
	   33 B(7,6,8)        =    108.969926    -0.000202    -0.504219   108.465707
	   34 B(7,6,9)        =    110.095766     0.000161     0.302526   110.398292
	   35 B(8,6,9)        =    110.111999     0.000258     0.550783   110.662782
	   36 B(9,12,13)      =    110.177739     0.000098     0.758022   110.935761
	   37 B(9,12,14)      =    110.173402     0.000125     0.668373   110.841776
	   38 B(10,9,11)      =    108.979558    -0.000192    -0.487629   108.491928
	   39 B(10,9,12)      =    110.061776     0.000209     0.426469   110.488245
	   40 B(11,9,12)      =    110.055506     0.000213     0.497617   110.553123
	   41 B(13,12,14)     =    108.980003     0.000037    -0.056233   108.923769
	   42 D(1,3,6,7)      =   -108.618517     0.000000     0.073931  -108.544585
	   43 D(1,3,6,8)      =    131.342451    -0.000008     0.051537   131.393988
	   44 D(1,3,6,9)      =     11.355416    -0.000018    -0.105918    11.249498
	   45 D(1,12,9,6)     =    -11.263503     0.000017     0.100247   -11.163256
	   46 D(1,12,9,10)    =    108.654274     0.000001    -0.049120   108.605154
	   47 D(1,12,9,11)    =   -131.219268     0.000008    -0.062814  -131.282083
	   48 D(2,1,3,4)      =    -18.334991    -0.000072    -1.612273   -19.947264
	   49 D(2,1,3,5)      =   -138.590777     0.000017    -0.118455  -138.709233
	   50 D(2,1,3,6)      =    101.520859    -0.000023    -0.709963   100.810896
	   51 D(2,1,12,9)     =   -101.521304     0.000021     0.677081  -100.844223
	   52 D(2,1,12,13)    =     18.339344     0.000071     1.590724    19.930068
	   53 D(2,1,12,14)    =    138.621668    -0.000019     0.076323   138.697992
	   54 D(3,1,12,9)     =     18.316918     0.000010     0.112169    18.429087
	   55 D(3,1,12,13)    =    138.177566     0.000060     1.025813   139.203379
	   56 D(3,1,12,14)    =   -101.540110    -0.000031    -0.488588  -102.028698
	   57 D(3,6,9,10)     =   -119.954151     0.000008     0.066865  -119.887286
	   58 D(3,6,9,11)     =    119.867395     0.000004     0.142236   120.009631
	   59 D(3,6,9,12)     =     -0.049468    -0.000000    -0.000659    -0.050128
	   60 D(4,3,1,12)     =   -138.198122    -0.000060    -1.021813  -139.219935
	   61 D(4,3,6,7)      =     11.239613    -0.000006    -0.115728    11.123885
	   62 D(4,3,6,8)      =   -108.799419    -0.000014    -0.138122  -108.937542
	   63 D(4,3,6,9)      =    131.213546    -0.000024    -0.295577   130.917968
	   64 D(5,3,1,12)     =    101.546092     0.000030     0.472005   102.018096
	   65 D(5,3,6,7)      =    131.548838     0.000036     0.719138   132.267976
	   66 D(5,3,6,8)      =     11.509805     0.000027     0.696744    12.206549
	   67 D(5,3,6,9)      =   -108.477229     0.000018     0.539289  -107.937941
	   68 D(6,3,1,12)     =    -18.342272    -0.000011    -0.119503   -18.461775
	   69 D(6,9,12,13)    =   -131.125023     0.000023     0.293468  -130.831555
	   70 D(6,9,12,14)    =    108.598997    -0.000020    -0.574655   108.024342
	   71 D(7,6,9,10)     =     -0.037959    -0.000000    -0.003975    -0.041934
	   72 D(7,6,9,11)     =   -120.216413    -0.000004     0.071397  -120.145016
	   73 D(7,6,9,12)     =    119.866724    -0.000009    -0.071499   119.795224
	   74 D(8,6,9,10)     =    120.134024     0.000004    -0.083354   120.050670
	   75 D(8,6,9,11)     =     -0.044431    -0.000000    -0.007982    -0.052413
	   76 D(8,6,9,12)     =   -119.961294    -0.000005    -0.150878  -120.112172
	   77 D(10,9,12,13)   =    -11.207246     0.000007     0.144101   -11.063145
	   78 D(10,9,12,14)   =   -131.483226    -0.000036    -0.724022  -132.207248
	   79 D(11,9,12,13)   =    108.919211     0.000014     0.130407   109.049618
	   80 D(11,9,12,14)   =    -11.356769    -0.000029    -0.737716   -12.094485
	 ---------------------------------------------------------------------------
	Successfully symmetrized geometry.

  ==> Convergence Check <==

  Measures of convergence in internal coordinates in au.
  Criteria marked as inactive (o), active & met (*), and active & unmet ( ).
  --------------------------------------------------------------------------------------------- ~
   Step     Total Energy     Delta E     MAX Force     RMS Force      MAX Disp      RMS Disp    ~
  --------------------------------------------------------------------------------------------- ~
    Convergence Criteria    1.00e-06 *    3.00e-04 *             o    1.20e-03 *             o  ~
  --------------------------------------------------------------------------------------------- ~
      1    -211.78606874   -2.12e+02      8.25e-02      2.65e-02 o    1.43e-01      4.77e-02 o  ~
  ---------------------------------------------------------------------------------------------

	Writing optimization data to binary file.
	Structure for next step:
	Cartesian Geometry (in Angstrom)
	    N    -0.9606055336   0.5510423463   0.6143576394
	    H    -0.7960835154   0.7615789656   1.5924462560
	    C     0.0478104541   1.2531322620  -0.2249035861
	    H     0.4721500428   2.0653860053   0.3380234079
	    H    -0.4421015325   1.6508166776  -1.0956208282
	    C     1.1329089693   0.2336687300  -0.6231435651
	    H     2.0496951951   0.4361957385  -0.0992436843
	    H     1.3265697815   0.2822743020  -1.6798776581
	    C     0.5875734106  -1.1520403912  -0.2341010657
	    H     1.2393114341  -1.6243187965   0.4786247832
	    H     0.5115917057  -1.7861376516  -1.0992624588
	    C    -0.8038229715  -0.9110032476   0.3840945668
	    H    -0.9027801017  -1.4288210567   1.3215974021
	    H    -1.5807433027  -1.2427194873  -0.2812207074
			--------------------------
			 OPTKING Finished Execution 
			--------------------------

    Structure for next step:
    Molecular point group: c1
    Full point group: C1

    Geometry (in Angstrom), charge = 0, multiplicity = 1:

    N           -0.960809692781     0.552326952354     0.618612199372
    H           -0.796287673861     0.762863572512     1.596700819749
    C            0.047606298962     1.254416870835    -0.220649029447
    H            0.471945889303     2.066670617363     0.342277966783
    H           -0.442305689570     1.652101288049    -1.091366274975
    C            1.132704818349     0.234953334850    -0.618889009983
    H            2.049491047776     0.437480344116    -0.094989127167
    H            1.326365631333     0.283558907019    -1.675623107195
    C            0.587369257493    -1.150755791772    -0.229846509105
    H            1.239107283650    -1.623034198928     0.482879342573
    H            0.511387552294    -1.784853054672    -1.095007905575
    C           -0.804027130027    -0.909718647272     0.388349125793
    H           -0.902984260578    -1.427536458399     1.325851964818
    H           -1.580947464315    -1.241434888242    -0.276966150943


Scratch directory: /scratch/glick/

Scratch directory: /scratch/glick/
gradient() will perform analytic gradient computation.
    SCF Algorithm Type (re)set to DF.

*** tstart() called on ds10
*** at Tue Apr 13 14:26:36 2021

   => Loading Basis Set <=

    Name: 6-31G*
    Role: ORBITAL
    Keyword: BASIS
    atoms 1                         entry N          line   128 file /theoryfs2/ds/glick/gits/psi4/objdir37/stage/share/psi4/basis/6-31gs.gbs 
    atoms 2, 4-5, 7-8, 10-11, 13-14 entry H          line    44 file /theoryfs2/ds/glick/gits/psi4/objdir37/stage/share/psi4/basis/6-31gs.gbs 
    atoms 3, 6, 9, 12               entry C          line   111 file /theoryfs2/ds/glick/gits/psi4/objdir37/stage/share/psi4/basis/6-31gs.gbs 


         ---------------------------------------------------------
                                   SCF
               by Justin Turney, Rob Parrish, Andy Simmonett
                          and Daniel G. A. Smith
                              RHF Reference
                        6 Threads,    953 MiB Core
         ---------------------------------------------------------

  ==> Geometry <==

    Molecular point group: c1
    Full point group: C1

    Geometry (in Angstrom), charge = 0, multiplicity = 1:

       Center              X                  Y                   Z               Mass       
    ------------   -----------------  -----------------  -----------------  -----------------
         N           -0.960809692781     0.552326952354     0.618612199372    14.003074004430
         H           -0.796287673861     0.762863572512     1.596700819749     1.007825032230
         C            0.047606298962     1.254416870835    -0.220649029447    12.000000000000
         H            0.471945889303     2.066670617363     0.342277966783     1.007825032230
         H           -0.442305689570     1.652101288049    -1.091366274975     1.007825032230
         C            1.132704818349     0.234953334850    -0.618889009983    12.000000000000
         H            2.049491047776     0.437480344116    -0.094989127167     1.007825032230
         H            1.326365631333     0.283558907019    -1.675623107195     1.007825032230
         C            0.587369257493    -1.150755791772    -0.229846509105    12.000000000000
         H            1.239107283650    -1.623034198928     0.482879342573     1.007825032230
         H            0.511387552294    -1.784853054672    -1.095007905575     1.007825032230
         C           -0.804027130027    -0.909718647272     0.388349125793    12.000000000000
         H           -0.902984260578    -1.427536458399     1.325851964818     1.007825032230
         H           -1.580947464315    -1.241434888242    -0.276966150943     1.007825032230

  Running in c1 symmetry.

  Rotational constants: A =      0.22566  B =      0.22326  C =      0.12507 [cm^-1]
  Rotational constants: A =   6765.25174  B =   6693.21948  C =   3749.56287 [MHz]
  Nuclear repulsion =  189.099917999004930

  Charge       = 0
  Multiplicity = 1
  Electrons    = 40
  Nalpha       = 20
  Nbeta        = 20

  ==> Algorithm <==

  SCF Algorithm Type is DF.
  DIIS enabled.
  MOM disabled.
  Fractional occupation disabled.
  Guess Type is READ.
  Energy threshold   = 1.00e-10
  Density threshold  = 1.00e-10
  Integral threshold = 1.00e-12

  ==> Primary Basis <==

  Basis Set: 6-31G*
    Blend: 6-31G*
    Number of shells: 48
    Number of basis functions: 93
    Number of Cartesian functions: 93
    Spherical Harmonics?: false
    Max angular momentum: 2

   => Loading Basis Set <=

    Name: (6-31G* AUX)
    Role: JKFIT
    Keyword: DF_BASIS_SCF
    atoms 1                         entry N          line   171 file /theoryfs2/ds/glick/gits/psi4/objdir37/stage/share/psi4/basis/cc-pvdz-jkfit.gbs 
    atoms 2, 4-5, 7-8, 10-11, 13-14 entry H          line    51 file /theoryfs2/ds/glick/gits/psi4/objdir37/stage/share/psi4/basis/cc-pvdz-jkfit.gbs 
    atoms 3, 6, 9, 12               entry C          line   121 file /theoryfs2/ds/glick/gits/psi4/objdir37/stage/share/psi4/basis/cc-pvdz-jkfit.gbs 

   => Loading Basis Set <=

    Name: 6-31G*
    Role: ORBITAL
    Keyword: BASIS
    atoms 1                         entry N          line   128 file /theoryfs2/ds/glick/gits/psi4/objdir37/stage/share/psi4/basis/6-31gs.gbs 
    atoms 2, 4-5, 7-8, 10-11, 13-14 entry H          line    44 file /theoryfs2/ds/glick/gits/psi4/objdir37/stage/share/psi4/basis/6-31gs.gbs 
    atoms 3, 6, 9, 12               entry C          line   111 file /theoryfs2/ds/glick/gits/psi4/objdir37/stage/share/psi4/basis/6-31gs.gbs 

  Reading orbitals from file 180, no projection.

  ==> Integral Setup <==

  DFHelper Memory: AOs need 0.046 GiB; user supplied 0.698 GiB. Using in-core AOs.

  ==> MemDFJK: Density-Fitted J/K Matrices <==

    J tasked:                   Yes
    K tasked:                   Yes
    wK tasked:                   No
    OpenMP threads:               6
    Memory [MiB]:               715
    Algorithm:                 Core
    Schwarz Cutoff:           1E-12
    Mask sparsity (%):       0.1156
    Fitting Condition:        1E-10

   => Auxiliary Basis Set <=

  Basis Set: (6-31G* AUX)
    Blend: CC-PVDZ-JKFIT
    Number of shells: 201
    Number of basis functions: 630
    Number of Cartesian functions: 630
    Spherical Harmonics?: false
    Max angular momentum: 3

  Minimum eigenvalue in the overlap matrix is 3.3877647895E-03.
  Reciprocal condition number of the overlap matrix is 4.4030058299E-04.
    Using symmetric orthogonalization.

  ==> Pre-Iterations <==

  SCF Guess: Orbitals guess was supplied from a previous computation.

   -------------------------------------------------------
    Irrep   Nso     Nmo     Nalpha   Nbeta   Ndocc  Nsocc
   -------------------------------------------------------
     A         93      93      20      20      20       0
   -------------------------------------------------------
    Total      93      93      20      20      20       0
   -------------------------------------------------------

  ==> Iterations <==

                           Total Energy        Delta E     RMS |[F,P]|

   @DF-RHF iter   0:  -210.91249039499419   -2.10912e+02   3.05787e-03 
   @DF-RHF iter   1:  -211.13766468991625   -2.25174e-01   3.82908e-04 DIIS
   @DF-RHF iter   2:  -211.13857691651702   -9.12227e-04   1.19692e-04 DIIS
   @DF-RHF iter   3:  -211.13864121058936   -6.42941e-05   4.82595e-05 DIIS
   @DF-RHF iter   4:  -211.13865290761956   -1.16970e-05   1.05081e-05 DIIS
   @DF-RHF iter   5:  -211.13865369539036   -7.87771e-07   2.21570e-06 DIIS
   @DF-RHF iter   6:  -211.13865374550525   -5.01149e-08   6.80962e-07 DIIS
   @DF-RHF iter   7:  -211.13865374870738   -3.20213e-09   1.97897e-07 DIIS
   @DF-RHF iter   8:  -211.13865374916477   -4.57391e-10   4.21025e-08 DIIS
   @DF-RHF iter   9:  -211.13865374919033   -2.55511e-11   1.03245e-08 DIIS
   @DF-RHF iter  10:  -211.13865374919160   -1.27898e-12   3.62421e-09 DIIS
   @DF-RHF iter  11:  -211.13865374919177   -1.70530e-13   8.24322e-10 DIIS
   @DF-RHF iter  12:  -211.13865374919186   -8.52651e-14   2.11719e-10 DIIS
   @DF-RHF iter  13:  -211.13865374919183    2.84217e-14   5.76152e-11 DIIS
  Energy and wave function converged.


  ==> Post-Iterations <==

    Orbital Energies [Eh]
    ---------------------

    Doubly Occupied:                                                      

       1A    -15.533539     2A    -11.235655     3A    -11.235585  
       4A    -11.211132     5A    -11.210561     6A     -1.197480  
       7A     -1.023535     8A     -0.975247     9A     -0.809043  
      10A     -0.786512    11A     -0.678008    12A     -0.643083  
      13A     -0.589052    14A     -0.579480    15A     -0.512610  
      16A     -0.493038    17A     -0.476852    18A     -0.473097  
      19A     -0.462706    20A     -0.359962  

    Virtual:                                                              

      21A      0.210747    22A      0.248076    23A      0.285563  
      24A      0.288868    25A      0.320434    26A      0.324314  
      27A      0.336178    28A      0.346562    29A      0.358852  
      30A      0.384359    31A      0.423105    32A      0.445782  
      33A      0.489165    34A      0.559177    35A      0.706102  
      36A      0.773328    37A      0.792539    38A      0.794894  
      39A      0.800771    40A      0.848429    41A      0.920839  
      42A      0.921957    43A      0.927468    44A      0.941126  
      45A      1.002103    46A      1.030176    47A      1.119501  
      48A      1.122410    49A      1.138829    50A      1.156824  
      51A      1.163651    52A      1.169770    53A      1.184524  
      54A      1.223191    55A      1.226855    56A      1.243819  
      57A      1.262834    58A      1.264596    59A      1.346211  
      60A      1.507792    61A      1.548240    62A      1.592990  
      63A      1.775612    64A      1.986418    65A      2.015305  
      66A      2.105484    67A      2.107702    68A      2.116463  
      69A      2.126952    70A      2.229102    71A      2.298129  
      72A      2.362508    73A      2.364248    74A      2.424549  
      75A      2.426915    76A      2.439455    77A      2.555068  
      78A      2.558294    79A      2.604859    80A      2.704301  
      81A      2.780344    82A      2.839780    83A      2.931561  
      84A      2.948730    85A      2.978772    86A      2.990974  
      87A      3.021049    88A      3.265343    89A      4.335578  
      90A      4.615786    91A      4.695049    92A      4.892913  
      93A      5.029183  

    Final Occupation by Irrep:
              A 
    DOCC [    20 ]

  @DF-RHF Final Energy:  -211.13865374919183

   => Energetics <=

    Nuclear Repulsion Energy =            189.0999179990049299
    One-Electron Energy =                -659.5047861230220860
    Two-Electron Energy =                 259.2662143748253811
    Total Energy =                       -211.1386537491918034

Computation Completed


Properties will be evaluated at   0.000000,   0.000000,   0.000000 [a0]

Properties computed using the SCF density matrix

  Nuclear Dipole Moment: [e a0]
     X:     1.7613      Y:    -0.8211      Z:    -0.4576

  Electronic Dipole Moment: [e a0]
     X:    -1.1915      Y:     0.6434      Z:     0.6234

  Dipole Moment: [e a0]
     X:     0.5698      Y:    -0.1777      Z:     0.1658     Total:     0.6194

  Dipole Moment: [D]
     X:     1.4482      Y:    -0.4517      Z:     0.4213     Total:     1.5745


*** tstop() called on ds10 at Tue Apr 13 14:26:37 2021
Module time:
	user time   =       3.25 seconds =       0.05 minutes
	system time =       0.10 seconds =       0.00 minutes
	total time  =          1 seconds =       0.02 minutes
Total time:
	user time   =      14.16 seconds =       0.24 minutes
	system time =       0.59 seconds =       0.01 minutes
	total time  =          3 seconds =       0.05 minutes

*** tstart() called on ds10
*** at Tue Apr 13 14:26:37 2021


  //>>>>>>>>>>>>>>>>>>>>>>>>>>>>>>>>>>>//
  //               DFMP2               //
  //<<<<<<<<<<<<<<<<<<<<<<<<<<<<<<<<<<<//

   => Loading Basis Set <=

    Name: (6-31G* AUX)
    Role: RIFIT
    Keyword: DF_BASIS_MP2
    atoms 1                         entry N          line   197 file /theoryfs2/ds/glick/gits/psi4/objdir37/stage/share/psi4/basis/cc-pvdz-ri.gbs 
    atoms 2, 4-5, 7-8, 10-11, 13-14 entry H          line    19 file /theoryfs2/ds/glick/gits/psi4/objdir37/stage/share/psi4/basis/cc-pvdz-ri.gbs 
    atoms 3, 6, 9, 12               entry C          line   159 file /theoryfs2/ds/glick/gits/psi4/objdir37/stage/share/psi4/basis/cc-pvdz-ri.gbs 

	 --------------------------------------------------------
	                          DF-MP2                         
	      2nd-Order Density-Fitted Moller-Plesset Theory     
	              RMP2 Wavefunction,   6 Threads             
	                                                         
	        Rob Parrish, Justin Turney, Andy Simmonett,      
	           Ed Hohenstein, and C. David Sherrill          
	 --------------------------------------------------------

   => Auxiliary Basis Set <=

  Basis Set: (6-31G* AUX)
    Blend: CC-PVDZ-RI
    Number of shells: 144
    Number of basis functions: 406
    Number of Cartesian functions: 465
    Spherical Harmonics?: true
    Max angular momentum: 3

	 --------------------------------------------------------
	                 NBF =    93, NAUX =   406
	 --------------------------------------------------------
	   CLASS    FOCC     OCC    AOCC    AVIR     VIR    FVIR
	   PAIRS       0      20      20      73      73       0
	 --------------------------------------------------------

  DFHelper Memory: AOs need 0.046 GiB; user supplied 0.698 GiB. Using in-core AOs.


         ------------------------------------------------------------
                                     CPHF                           
                                  Rob Parrish                       
         ------------------------------------------------------------

  ==> Geometry <==

    Molecular point group: c1
    Full point group: C1

    Geometry (in Angstrom), charge = 0, multiplicity = 1:

       Center              X                  Y                   Z               Mass       
    ------------   -----------------  -----------------  -----------------  -----------------
         N           -0.960809692781     0.552326952354     0.618612199372    14.003074004430
         H           -0.796287673861     0.762863572512     1.596700819749     1.007825032230
         C            0.047606298962     1.254416870835    -0.220649029447    12.000000000000
         H            0.471945889303     2.066670617363     0.342277966783     1.007825032230
         H           -0.442305689570     1.652101288049    -1.091366274975     1.007825032230
         C            1.132704818349     0.234953334850    -0.618889009983    12.000000000000
         H            2.049491047776     0.437480344116    -0.094989127167     1.007825032230
         H            1.326365631333     0.283558907019    -1.675623107195     1.007825032230
         C            0.587369257493    -1.150755791772    -0.229846509105    12.000000000000
         H            1.239107283650    -1.623034198928     0.482879342573     1.007825032230
         H            0.511387552294    -1.784853054672    -1.095007905575     1.007825032230
         C           -0.804027130027    -0.909718647272     0.388349125793    12.000000000000
         H           -0.902984260578    -1.427536458399     1.325851964818     1.007825032230
         H           -1.580947464315    -1.241434888242    -0.276966150943     1.007825032230

  Nuclear repulsion =  189.099917999004930
  Reference energy  = -211.138653749191832

  ==> Basis Set <==

  Basis Set: 6-31G*
    Blend: 6-31G*
    Number of shells: 48
    Number of basis functions: 93
    Number of Cartesian functions: 93
    Spherical Harmonics?: false
    Max angular momentum: 2

  ==> CGRSolver (by Rob Parrish) <==

   Number of roots    =         1
   Preconditioning    =    JACOBI
   Convergence cutoff =     1E-06
   Maximum iterations =       100

  ==> CPHFRHamiltonian (by Rob Parrish) <== 

  ==> MemDFJK: Density-Fitted J/K Matrices <==

    J tasked:                   Yes
    K tasked:                   Yes
    wK tasked:                   No
    OpenMP threads:               6
    Memory [MiB]:               715
    Algorithm:                 Core
    Schwarz Cutoff:           1E-12
    Mask sparsity (%):       0.1156
    Fitting Condition:        1E-10

   => Auxiliary Basis Set <=

  Basis Set: (6-31G* AUX)
    Blend: CC-PVDZ-JKFIT
    Number of shells: 201
    Number of basis functions: 630
    Number of Cartesian functions: 630
    Spherical Harmonics?: false
    Max angular momentum: 3

  ==> CPHF Iterations <==

  => Iterations <=

             Iter  Converged  Remaining    Residual
  CGR           1          0          1   8.636E-02
  CGR           2          0          1   1.210E-02
  CGR           3          0          1   2.787E-03
  CGR           4          0          1   8.350E-04
  CGR           5          0          1   3.333E-04
  CGR           6          0          1   7.661E-05
  CGR           7          0          1   2.609E-05
  CGR           8          0          1   7.140E-06
  CGR           9          0          1   1.423E-06
  CGR          10          1          0   4.061E-07

    CGRSolver converged.

  ==> DFCorrGrad: Density-Fitted Correlated Gradients <==

    OpenMP threads:              6
    Integrals threads:           6
    Memory [GiB]:            0.698
    Schwarz Cutoff:          0E+00
    Fitting Condition:       1E-10

   => Auxiliary Basis Set <=

  Basis Set: (6-31G* AUX)
    Blend: CC-PVDZ-JKFIT
    Number of shells: 201
    Number of basis functions: 630
    Number of Cartesian functions: 630
    Spherical Harmonics?: false
    Max angular momentum: 3

	-----------------------------------------------------------
	 ==================> DF-MP2 Energies <==================== 
	-----------------------------------------------------------
	 Reference Energy          =    -211.1386537491918318 [Eh]
	 Singles Energy            =      -0.0000000000000000 [Eh]
	 Same-Spin Energy          =      -0.1718138353288855 [Eh]
	 Opposite-Spin Energy      =      -0.5310677823390429 [Eh]
	 Correlation Energy        =      -0.7028816176679284 [Eh]
	 Total Energy              =    -211.8415353668597731 [Eh]
	-----------------------------------------------------------
	 ================> DF-SCS-MP2 Energies <================== 
	-----------------------------------------------------------
	 SCS Same-Spin Scale       =       0.3333333333333333 [-]
	 SCS Opposite-Spin Scale   =       1.2000000000000000 [-]
	 SCS Same-Spin Energy      =      -0.0572712784429618 [Eh]
	 SCS Opposite-Spin Energy  =      -0.6372813388068516 [Eh]
	 SCS Correlation Energy    =      -0.6945526172498134 [Eh]
	 SCS Total Energy          =    -211.8332063664416580 [Eh]
	-----------------------------------------------------------


  -Total Gradient:
     Atom            X                  Y                   Z
    ------   -----------------  -----------------  -----------------
       1       -0.005430299486     0.004143516592     0.006591915993
       2       -0.003885817914     0.001002544745    -0.001933295682
       3        0.006043147180     0.020769547995    -0.011231540708
       4       -0.002555482119    -0.012416378634    -0.004454627812
       5        0.005616752395    -0.005445749558     0.010757314165
       6        0.013520444627     0.002779309298    -0.005461949134
       7       -0.011484522857    -0.002525784115    -0.004615032543
       8       -0.004978271016    -0.001767755375     0.011618440870
       9        0.007483894846    -0.013055129904    -0.001166431293
      10       -0.007837352946     0.006868231830    -0.007250317038
      11       -0.000475033463     0.009620912630     0.008458506121
      12       -0.010831515342    -0.021934950037     0.000769797935
      13        0.005168559148     0.007286725219    -0.009960226235
      14        0.009645496946     0.004674959315     0.007877445362


*** tstop() called on ds10 at Tue Apr 13 14:26:38 2021
Module time:
	user time   =       6.73 seconds =       0.11 minutes
	system time =       0.21 seconds =       0.00 minutes
	total time  =          1 seconds =       0.02 minutes
Total time:
	user time   =      20.89 seconds =       0.35 minutes
	system time =       0.80 seconds =       0.01 minutes
	total time  =          4 seconds =       0.07 minutes

			-----------------------------------------
			 OPTKING 2.0: for geometry optimizations 
			  - R.A. King,  Bethel University        
			-----------------------------------------

	Previous internal coordinate definitions found.
	---Fragment 1 Geometry and Gradient---
	 N          -1.8156671780        1.0437466717        1.1690076347
	 H          -1.5047656207        1.4416032231        3.0173272536
	 C           0.0899628669        2.3705043330       -0.4169662355
	 H           0.8918484768        3.9054414583        0.6468116160
	 H          -0.8358366170        3.1220189659       -2.0623833623
	 C           2.1405018877        0.4439974551       -1.1695307309
	 H           3.8729767769        0.8267180357       -0.1795034352
	 H           2.5064677854        0.5358486747       -3.1664687621
	 C           1.1099670312       -2.1746132837       -0.4343469531
	 H           2.3415734062       -3.0670901282        0.9125097091
	 H           0.9663824178       -3.3728834475       -2.0692650467
	 C          -1.5193910732       -1.7191190946        0.7338734888
	 H          -1.7063929481       -2.6976529405        2.5054970964
	 H          -2.9875577263       -2.3459719414       -0.5233901713
	            -0.0054302995        0.0041435166        0.0065919160
	            -0.0038858179        0.0010025447       -0.0019332957
	             0.0060431472        0.0207695480       -0.0112315407
	            -0.0025554821       -0.0124163786       -0.0044546278
	             0.0056167524       -0.0054457496        0.0107573142
	             0.0135204446        0.0027793093       -0.0054619491
	            -0.0114845229       -0.0025257841       -0.0046150325
	            -0.0049782710       -0.0017677554        0.0116184409
	             0.0074838948       -0.0130551299       -0.0011664313
	            -0.0078373529        0.0068682318       -0.0072503170
	            -0.0004750335        0.0096209126        0.0084585061
	            -0.0108315153       -0.0219349500        0.0007697979
	             0.0051685591        0.0072867252       -0.0099602262
	             0.0096454969        0.0046749593        0.0078774454

	---Fragment 1 Intrafragment Coordinates---
	 - Coordinate -           - BOHR/RAD -       - ANG/DEG -
	 R(1,2)           =         1.916047	       1.013928
	 R(1,3)           =         2.811943	       1.488016
	 R(1,12)          =         2.812570	       1.488348
	 R(3,4)           =         2.032406	       1.075503
	 R(3,5)           =         2.032062	       1.075321
	 R(3,6)           =         2.912472	       1.541214
	 R(6,7)           =         2.031772	       1.075168
	 R(6,8)           =         2.032272	       1.075432
	 R(6,9)           =         2.908543	       1.539134
	 R(9,10)          =         2.031598	       1.075076
	 R(9,11)          =         2.032099	       1.075340
	 R(9,12)          =         2.913029	       1.541509
	 R(12,13)         =         2.032523	       1.075565
	 R(12,14)         =         2.032036	       1.075307
	 B(1,3,4)         =         1.905526	     109.178625
	 B(1,3,5)         =         1.899102	     108.810539
	 B(1,3,6)         =         1.886799	     108.105595
	 B(1,12,9)        =         1.886754	     108.103058
	 B(1,12,13)       =         1.905391	     109.170887
	 B(1,12,14)       =         1.899321	     108.823081
	 B(2,1,3)         =         1.913613	     109.641921
	 B(2,1,12)        =         1.913595	     109.640916
	 B(3,1,12)        =         1.880571	     107.748803
	 B(3,6,7)         =         1.928190	     110.477148
	 B(3,6,8)         =         1.929210	     110.535610
	 B(3,6,9)         =         1.855384	     106.305675
	 B(4,3,5)         =         1.901033	     108.921186
	 B(4,3,6)         =         1.935874	     110.917428
	 B(5,3,6)         =         1.934958	     110.864901
	 B(6,9,10)        =         1.926539	     110.382564
	 B(6,9,11)        =         1.931105	     110.644185
	 B(6,9,12)        =         1.855008	     106.284105
	 B(7,6,8)         =         1.893084	     108.465707
	 B(7,6,9)         =         1.926814	     110.398292
	 B(8,6,9)         =         1.931430	     110.662782
	 B(9,12,13)       =         1.936194	     110.935761
	 B(9,12,14)       =         1.934554	     110.841776
	 B(10,9,11)       =         1.893541	     108.491928
	 B(10,9,12)       =         1.928384	     110.488245
	 B(11,9,12)       =         1.929516	     110.553123
	 B(13,12,14)      =         1.901078	     108.923769
	 D(1,3,6,7)       =        -1.894460	    -108.544585
	 D(1,3,6,8)       =         2.293258	     131.393988
	 D(1,3,6,9)       =         0.196341	      11.249498
	 D(1,12,9,6)      =        -0.194836	     -11.163256
	 D(1,12,9,10)     =         1.895518	     108.605154
	 D(1,12,9,11)     =        -2.291305	    -131.282083
	 D(2,1,3,4)       =        -0.348145	     -19.947264
	 D(2,1,3,5)       =        -2.420933	    -138.709233
	 D(2,1,3,6)       =         1.759482	     100.810896
	 D(2,1,12,9)      =        -1.760064	    -100.844223
	 D(2,1,12,13)     =         0.347845	      19.930068
	 D(2,1,12,14)     =         2.420737	     138.697992
	 D(3,1,12,9)      =         0.321648	      18.429087
	 D(3,1,12,13)     =         2.429557	     139.203379
	 D(3,1,12,14)     =        -1.780737	    -102.028698
	 D(3,6,9,10)      =        -2.092428	    -119.887286
	 D(3,6,9,11)      =         2.094563	     120.009631
	 D(3,6,9,12)      =        -0.000875	      -0.050128
	 D(4,3,1,12)      =        -2.429846	    -139.219935
	 D(4,3,6,7)       =         0.194148	      11.123885
	 D(4,3,6,8)       =        -1.901319	    -108.937542
	 D(4,3,6,9)       =         2.284950	     130.917968
	 D(5,3,1,12)      =         1.780552	     102.018096
	 D(5,3,6,7)       =         2.308512	     132.267976
	 D(5,3,6,8)       =         0.213044	      12.206549
	 D(5,3,6,9)       =        -1.883872	    -107.937941
	 D(6,3,1,12)      =        -0.322219	     -18.461775
	 D(6,9,12,13)     =        -2.283441	    -130.831555
	 D(6,9,12,14)     =         1.885380	     108.024342
	 D(7,6,9,10)      =        -0.000732	      -0.041934
	 D(7,6,9,11)      =        -2.096926	    -120.145016
	 D(7,6,9,12)      =         2.090821	     119.795224
	 D(8,6,9,10)      =         2.095279	     120.050670
	 D(8,6,9,11)      =        -0.000915	      -0.052413
	 D(8,6,9,12)      =        -2.096353	    -120.112172
	 D(10,9,12,13)    =        -0.193088	     -11.063145
	 D(10,9,12,14)    =        -2.307452	    -132.207248
	 D(11,9,12,13)    =         1.903275	     109.049618
	 D(11,9,12,14)    =        -0.211089	     -12.094485

	Current energy   :      -211.8415353669

	Energy change for the previous step:
		Projected    :        -0.0848455098
		Actual       :        -0.0554666225

	Performing BFGS update.
	Previous computed or guess Hessian on step 1.
	Steps to be used in Hessian update: 1
	Taking RFO optimization step.
	Going to follow RFO solution 1.
	Using RFO vector 1.
	Norm of target step-size    0.49900
	Projected energy change by RFO approximation:         0.0102653772

	Back-transformation to cartesian coordinates...
	Could not converge backtransformation.
	Using first guess instead.

	--- Internal Coordinate Step in ANG or DEG, aJ/ANG or AJ/DEG ---
	 ---------------------------------------------------------------------------
	   Coordinate                Previous        Force       Change         New 
	   ----------                --------       ------       ------       ------
	    1 R(1,2)          =      1.013928     0.018844     0.007929     1.021857
	    2 R(1,3)          =      1.488016    -0.072343    -0.015189     1.472827
	    3 R(1,12)         =      1.488348    -0.073786    -0.015585     1.472763
	    4 R(3,4)          =      1.075503     0.104773     0.017339     1.092842
	    5 R(3,5)          =      1.075321     0.109439     0.016684     1.092005
	    6 R(3,6)          =      1.541214     0.017677     0.003954     1.545168
	    7 R(6,7)          =      1.075168     0.103127     0.014423     1.089590
	    8 R(6,8)          =      1.075432     0.102101     0.014390     1.089822
	    9 R(6,9)          =      1.539134     0.020606     0.005446     1.544581
	   10 R(9,10)         =      1.075076     0.103602     0.014476     1.089551
	   11 R(9,11)         =      1.075340     0.102530     0.014440     1.089780
	   12 R(9,12)         =      1.541509     0.016705     0.003721     1.545229
	   13 R(12,13)        =      1.075565     0.104346     0.017290     1.092854
	   14 R(12,14)        =      1.075307     0.109452     0.016690     1.091997
	   15 B(1,3,4)        =    109.178625    -0.000021     0.246263   109.424888
	   16 B(1,3,5)        =    108.810539     0.000005     0.655598   109.466136
	   17 B(1,3,6)        =    108.105595     0.000020    -0.467016   107.638579
	   18 B(1,12,9)       =    108.103058     0.000023    -0.457697   107.645362
	   19 B(1,12,13)      =    109.170887    -0.000021     0.252459   109.423346
	   20 B(1,12,14)      =    108.823081     0.000002     0.642105   109.465185
	   21 B(2,1,3)        =    109.641921    -0.000081    -0.380789   109.261132
	   22 B(2,1,12)       =    109.640916    -0.000081    -0.381926   109.258991
	   23 B(3,1,12)       =    107.748803     0.000272    -0.271955   107.476848
	   24 B(3,6,7)        =    110.477148     0.000058     0.352992   110.830141
	   25 B(3,6,8)        =    110.535610     0.000068     0.386036   110.921646
	   26 B(3,6,9)        =    106.305675    -0.000167    -0.715659   105.590015
	   27 B(4,3,5)        =    108.921186    -0.000113    -1.366583   107.554603
	   28 B(4,3,6)        =    110.917428     0.000093     0.910459   111.827887
	   29 B(5,3,6)        =    110.864901     0.000016     0.047045   110.911945
	   30 B(6,9,10)       =    110.382564     0.000069     0.690147   111.072710
	   31 B(6,9,11)       =    110.644185     0.000102     0.577999   111.222184
	   32 B(6,9,12)       =    106.284105    -0.000161    -0.695177   105.588928
	   33 B(7,6,8)        =    108.465707    -0.000124    -1.207243   107.258464
	   34 B(7,6,9)        =    110.398292     0.000068     0.674480   111.072772
	   35 B(8,6,9)        =    110.662782     0.000102     0.562232   111.225013
	   36 B(9,12,13)      =    110.935761     0.000091     0.891183   111.826944
	   37 B(9,12,14)      =    110.841776     0.000018     0.065391   110.907167
	   38 B(10,9,11)      =    108.491928    -0.000124    -1.226939   107.264990
	   39 B(10,9,12)      =    110.488245     0.000055     0.344843   110.833088
	   40 B(11,9,12)      =    110.553123     0.000065     0.362772   110.915895
	   41 B(13,12,14)     =    108.923769    -0.000113    -1.367823   107.555946
	   42 D(1,3,6,7)      =   -108.544585    -0.000003     2.937176  -105.607410
	   43 D(1,3,6,8)      =    131.393988     0.000014     3.967355   135.361343
	   44 D(1,3,6,9)      =     11.249498    -0.000000     3.510846    14.760345
	   45 D(1,12,9,6)     =    -11.163256    -0.000000    -3.522212   -14.685468
	   46 D(1,12,9,10)    =    108.605154     0.000004    -2.921989   105.683165
	   47 D(1,12,9,11)    =   -131.282083    -0.000014    -3.997153  -135.279236
	   48 D(2,1,3,4)      =    -19.947264    -0.000040    -7.794665   -27.741929
	   49 D(2,1,3,5)      =   -138.709233    -0.000006    -6.668654  -145.377887
	   50 D(2,1,3,6)      =    100.810896    -0.000014    -6.828133    93.982763
	   51 D(2,1,12,9)     =   -100.844223     0.000014     6.830982   -94.013242
	   52 D(2,1,12,13)    =     19.930068     0.000040     7.783471    27.713539
	   53 D(2,1,12,14)    =    138.697992     0.000006     6.651677   145.349668
	   54 D(3,1,12,9)     =     18.429087     0.000018     6.004793    24.433880
	   55 D(3,1,12,13)    =    139.203379     0.000043     6.957282   146.160661
	   56 D(3,1,12,14)    =   -102.028698     0.000010     5.825488   -96.203210
	   57 D(3,6,9,10)     =   -119.887286    -0.000002    -0.369508  -120.256794
	   58 D(3,6,9,11)     =    120.009631     0.000008     0.338521   120.348152
	   59 D(3,6,9,12)     =     -0.050128    -0.000000     0.004883    -0.045245
	   60 D(4,3,1,12)     =   -139.219935    -0.000044    -6.967735  -146.187670
	   61 D(4,3,6,7)      =     11.123885     0.000006     3.486216    14.610100
	   62 D(4,3,6,8)      =   -108.937542     0.000023     4.516395  -104.421146
	   63 D(4,3,6,9)      =    130.917968     0.000010     4.059887   134.977855
	   64 D(5,3,1,12)     =    102.018096    -0.000010    -5.841724    96.176373
	   65 D(5,3,6,7)      =    132.267976    -0.000010     2.399392   134.667368
	   66 D(5,3,6,8)      =     12.206549     0.000007     3.429572    15.636121
	   67 D(5,3,6,9)      =   -107.937941    -0.000006     2.973063  -104.964877
	   68 D(6,3,1,12)     =    -18.461775    -0.000018    -6.001202   -24.462978
	   69 D(6,9,12,13)    =   -130.831555    -0.000010    -4.073356  -134.904911
	   70 D(6,9,12,14)    =    108.024342     0.000006    -2.984324   105.040018
	   71 D(7,6,9,10)     =     -0.041934    -0.000000    -0.006163    -0.048097
	   72 D(7,6,9,11)     =   -120.145016     0.000010     0.701865  -119.443151
	   73 D(7,6,9,12)     =    119.795224     0.000002     0.368227   120.163452
	   74 D(8,6,9,10)     =    120.050670    -0.000010    -0.710024   119.340646
	   75 D(8,6,9,11)     =     -0.052413    -0.000000    -0.001995    -0.054408
	   76 D(8,6,9,12)     =   -120.112172    -0.000009    -0.335633  -120.447805
	   77 D(10,9,12,13)   =    -11.063145    -0.000006    -3.473132   -14.536277
	   78 D(10,9,12,14)   =   -132.207248     0.000010    -2.384101  -134.591349
	   79 D(11,9,12,13)   =    109.049618    -0.000024    -4.548297   104.501321
	   80 D(11,9,12,14)   =    -12.094485    -0.000008    -3.459265   -15.553751
	 ---------------------------------------------------------------------------
	Successfully symmetrized geometry.

  ==> Convergence Check <==

  Measures of convergence in internal coordinates in au.
  Criteria marked as inactive (o), active & met (*), and active & unmet ( ).
  ---------------------------------------------------------------------------------------------
   Step     Total Energy     Delta E     MAX Force     RMS Force      MAX Disp      RMS Disp   
  ---------------------------------------------------------------------------------------------
    Convergence Criteria    1.00e-06 *    3.00e-04 *             o    1.20e-03 *             o
  ---------------------------------------------------------------------------------------------
      2    -211.84153537   -5.55e-02      1.33e-02      4.41e-03 o    1.36e-01      5.55e-02 o  ~
  ---------------------------------------------------------------------------------------------

	Writing optimization data to binary file.
	Structure for next step:
	Cartesian Geometry (in Angstrom)
	    N    -0.9216164358   0.5489468132   0.6621035036
	    H    -0.6608647191   0.7201297689   1.6351898979
	    C     0.0256059733   1.2459823131  -0.2245363030
	    H     0.4306244642   2.1200108729   0.2915430332
	    H    -0.5015323851   1.6024299881  -1.1119739519
	    C     1.1343016286   0.2404732880  -0.6083193289
	    H     2.0588770943   0.4612553972  -0.0757569191
	    H     1.3548621164   0.2925080118  -1.6743196824
	    C     0.5869125018  -1.1500536517  -0.2177698496
	    H     1.2342360219  -1.6349917808   0.5122503420
	    H     0.5269439989  -1.8080451140  -1.0844142054
	    C    -0.8156973752  -0.8920897639   0.3771034806
	    H    -0.9766190449  -1.4575420671   1.2983518761
	    H    -1.5974179786  -1.1819752244  -0.3281175862
			--------------------------
			 OPTKING Finished Execution 
			--------------------------

    Structure for next step:
    Molecular point group: c1
    Full point group: C1

    Geometry (in Angstrom), charge = 0, multiplicity = 1:

    N           -0.923751482755     0.547180556091     0.652989431561
    H           -0.662999764939     0.718363512459     1.626075829654
    C            0.023470930098     1.244216058711    -0.233650378515
    H            0.428489422605     2.118244621991     0.282428959743
    H           -0.503667430376     1.600663735100    -1.121088030945
    C            1.132166589736     0.238707029708    -0.617433405980
    H            2.056742059115     0.459489139705    -0.084870994062
    H            1.352727078426     0.290741753668    -1.683433763627
    C            0.584777460837    -1.151819915505    -0.226883925123
    H            1.232100983497    -1.636758046483     0.503136269403
    H            0.524808957658    -1.809811380432    -1.093528284264
    C           -0.817832421729    -0.893856026725     0.367989407397
    H           -0.978754092065    -1.459308332149     1.289237806562
    H           -1.599553028131    -1.183741488284    -0.337231662082


Scratch directory: /scratch/glick/

Scratch directory: /scratch/glick/
gradient() will perform analytic gradient computation.
    SCF Algorithm Type (re)set to DF.

*** tstart() called on ds10
*** at Tue Apr 13 14:26:38 2021

   => Loading Basis Set <=

    Name: 6-31G*
    Role: ORBITAL
    Keyword: BASIS
    atoms 1                         entry N          line   128 file /theoryfs2/ds/glick/gits/psi4/objdir37/stage/share/psi4/basis/6-31gs.gbs 
    atoms 2, 4-5, 7-8, 10-11, 13-14 entry H          line    44 file /theoryfs2/ds/glick/gits/psi4/objdir37/stage/share/psi4/basis/6-31gs.gbs 
    atoms 3, 6, 9, 12               entry C          line   111 file /theoryfs2/ds/glick/gits/psi4/objdir37/stage/share/psi4/basis/6-31gs.gbs 


         ---------------------------------------------------------
                                   SCF
               by Justin Turney, Rob Parrish, Andy Simmonett
                          and Daniel G. A. Smith
                              RHF Reference
                        6 Threads,    953 MiB Core
         ---------------------------------------------------------

  ==> Geometry <==

    Molecular point group: c1
    Full point group: C1

    Geometry (in Angstrom), charge = 0, multiplicity = 1:

       Center              X                  Y                   Z               Mass       
    ------------   -----------------  -----------------  -----------------  -----------------
         N           -0.923751482755     0.547180556091     0.652989431561    14.003074004430
         H           -0.662999764939     0.718363512459     1.626075829654     1.007825032230
         C            0.023470930098     1.244216058711    -0.233650378515    12.000000000000
         H            0.428489422605     2.118244621991     0.282428959743     1.007825032230
         H           -0.503667430376     1.600663735100    -1.121088030945     1.007825032230
         C            1.132166589736     0.238707029708    -0.617433405980    12.000000000000
         H            2.056742059115     0.459489139705    -0.084870994062     1.007825032230
         H            1.352727078426     0.290741753668    -1.683433763627     1.007825032230
         C            0.584777460837    -1.151819915505    -0.226883925123    12.000000000000
         H            1.232100983497    -1.636758046483     0.503136269403     1.007825032230
         H            0.524808957658    -1.809811380432    -1.093528284264     1.007825032230
         C           -0.817832421729    -0.893856026725     0.367989407397    12.000000000000
         H           -0.978754092065    -1.459308332149     1.289237806562     1.007825032230
         H           -1.599553028131    -1.183741488284    -0.337231662082     1.007825032230

  Running in c1 symmetry.

  Rotational constants: A =      0.22561  B =      0.22356  C =      0.12626 [cm^-1]
  Rotational constants: A =   6763.47185  B =   6702.17511  C =   3785.15794 [MHz]
  Nuclear repulsion =  189.021194833262371

  Charge       = 0
  Multiplicity = 1
  Electrons    = 40
  Nalpha       = 20
  Nbeta        = 20

  ==> Algorithm <==

  SCF Algorithm Type is DF.
  DIIS enabled.
  MOM disabled.
  Fractional occupation disabled.
  Guess Type is READ.
  Energy threshold   = 1.00e-10
  Density threshold  = 1.00e-10
  Integral threshold = 1.00e-12

  ==> Primary Basis <==

  Basis Set: 6-31G*
    Blend: 6-31G*
    Number of shells: 48
    Number of basis functions: 93
    Number of Cartesian functions: 93
    Spherical Harmonics?: false
    Max angular momentum: 2

   => Loading Basis Set <=

    Name: (6-31G* AUX)
    Role: JKFIT
    Keyword: DF_BASIS_SCF
    atoms 1                         entry N          line   171 file /theoryfs2/ds/glick/gits/psi4/objdir37/stage/share/psi4/basis/cc-pvdz-jkfit.gbs 
    atoms 2, 4-5, 7-8, 10-11, 13-14 entry H          line    51 file /theoryfs2/ds/glick/gits/psi4/objdir37/stage/share/psi4/basis/cc-pvdz-jkfit.gbs 
    atoms 3, 6, 9, 12               entry C          line   121 file /theoryfs2/ds/glick/gits/psi4/objdir37/stage/share/psi4/basis/cc-pvdz-jkfit.gbs 

   => Loading Basis Set <=

    Name: 6-31G*
    Role: ORBITAL
    Keyword: BASIS
    atoms 1                         entry N          line   128 file /theoryfs2/ds/glick/gits/psi4/objdir37/stage/share/psi4/basis/6-31gs.gbs 
    atoms 2, 4-5, 7-8, 10-11, 13-14 entry H          line    44 file /theoryfs2/ds/glick/gits/psi4/objdir37/stage/share/psi4/basis/6-31gs.gbs 
    atoms 3, 6, 9, 12               entry C          line   111 file /theoryfs2/ds/glick/gits/psi4/objdir37/stage/share/psi4/basis/6-31gs.gbs 

  Reading orbitals from file 180, no projection.

  ==> Integral Setup <==

  DFHelper Memory: AOs need 0.046 GiB; user supplied 0.698 GiB. Using in-core AOs.

  ==> MemDFJK: Density-Fitted J/K Matrices <==

    J tasked:                   Yes
    K tasked:                   Yes
    wK tasked:                   No
    OpenMP threads:               6
    Memory [MiB]:               715
[...]
       4       -0.000010053449    -0.000023004825    -0.000000736540
       5        0.000005239185    -0.000005420472     0.000010568787
       6        0.000008608232    -0.000015363941    -0.000024143085
       7       -0.000004895284    -0.000002559410     0.000003623540
       8        0.000007277132    -0.000007011131    -0.000002574746
       9        0.000010986980    -0.000006654886    -0.000027106493
      10       -0.000001428556     0.000006585582     0.000001441631
      11        0.000009626903    -0.000001686233    -0.000004116451
      12        0.000010670010     0.000014493331     0.000022056564
      13        0.000006988348     0.000020445037    -0.000012893664
      14        0.000009324250     0.000005181570     0.000007700476


*** tstop() called on ds10 at Tue Apr 13 14:26:53 2021
Module time:
	user time   =       7.12 seconds =       0.12 minutes
	system time =       0.26 seconds =       0.00 minutes
	total time  =          1 seconds =       0.02 minutes
Total time:
	user time   =     100.00 seconds =       1.67 minutes
	system time =       3.40 seconds =       0.06 minutes
	total time  =         19 seconds =       0.32 minutes

			-----------------------------------------
			 OPTKING 2.0: for geometry optimizations 
			  - R.A. King,  Bethel University        
			-----------------------------------------

	Previous internal coordinate definitions found.
	---Fragment 1 Geometry and Gradient---
	 N          -1.6088817861        1.0306596075        1.4131625487
	 H          -0.6658369273        1.1330664584        3.0957368921
	 C          -0.0502539901        2.2826458054       -0.5100906711
	 H           0.5831260417        4.1329123863        0.1562334838
	 H          -1.2410062245        2.5903198769       -2.1759542624
	 C           2.1331117535        0.4587470735       -1.1544944191
	 H           3.8114869907        0.9239263859       -0.0399980292
	 H           2.6754681473        0.5676764092       -3.1460004703
	 C           1.0977357862       -2.1716538051       -0.4156178825
	 H           2.2584618111       -3.0247096632        1.0677595054
	 H           1.0760243245       -3.4915388841       -2.0060702763
	 C          -1.5849189114       -1.6175992117        0.5873506417
	 H          -2.1700911644       -2.8662128106        2.1259127956
	 H          -2.9726904760       -1.8090946051       -0.9374581208
	            -0.0000550597        0.0000263429        0.0000161212
	             0.0000009370       -0.0000055604       -0.0000177588
	             0.0000017790       -0.0000057871        0.0000278176
	            -0.0000100534       -0.0000230048       -0.0000007365
	             0.0000052392       -0.0000054205        0.0000105688
	             0.0000086082       -0.0000153639       -0.0000241431
	            -0.0000048953       -0.0000025594        0.0000036235
	             0.0000072771       -0.0000070111       -0.0000025747
	             0.0000109870       -0.0000066549       -0.0000271065
	            -0.0000014286        0.0000065856        0.0000014416
	             0.0000096269       -0.0000016862       -0.0000041165
	             0.0000106700        0.0000144933        0.0000220566
	             0.0000069883        0.0000204450       -0.0000128937
	             0.0000093242        0.0000051816        0.0000077005

	---Fragment 1 Intrafragment Coordinates---
	 - Coordinate -           - BOHR/RAD -       - ANG/DEG -
	 R(1,2)           =         1.931548	       1.022131
	 R(1,3)           =         2.774111	       1.467996
	 R(1,12)          =         2.774133	       1.468008
	 R(3,4)           =         2.066070	       1.093317
	 R(3,5)           =         2.070666	       1.095749
	 R(3,6)           =         2.917010	       1.543615
	 R(6,7)           =         2.067713	       1.094187
	 R(6,8)           =         2.066909	       1.093761
	 R(6,9)           =         2.921806	       1.546153
	 R(9,10)          =         2.067703	       1.094182
	 R(9,11)          =         2.066908	       1.093760
	 R(9,12)          =         2.917115	       1.543671
	 R(12,13)         =         2.066068	       1.093316
	 R(12,14)         =         2.070657	       1.095745
	 B(1,3,4)         =         1.931382	     110.660018
	 B(1,3,5)         =         1.877290	     107.560779
	 B(1,3,6)         =         1.866599	     106.948223
	 B(1,12,9)        =         1.866704	     106.954249
	 B(1,12,13)       =         1.931354	     110.658424
	 B(1,12,14)       =         1.877277	     107.560057
	 B(2,1,3)         =         1.881452	     107.799245
	 B(2,1,12)        =         1.881477	     107.800706
	 B(3,1,12)        =         1.792201	     102.685551
	 B(3,6,7)         =         1.926040	     110.353944
	 B(3,6,8)         =         1.956602	     112.105036
	 B(3,6,9)         =         1.815017	     103.992796
	 B(4,3,5)         =         1.878304	     107.618887
	 B(4,3,6)         =         1.984212	     113.686949
	 B(5,3,6)         =         1.923683	     110.218917
	 B(6,9,10)        =         1.932545	     110.726674
	 B(6,9,11)        =         1.964946	     112.583141
	 B(6,9,12)        =         1.815056	     103.995020
	 B(7,6,8)         =         1.869716	     107.126863
	 B(7,6,9)         =         1.932501	     110.724124
	 B(8,6,9)         =         1.965016	     112.587125
	 B(9,12,13)       =         1.984190	     113.685700
	 B(9,12,14)       =         1.923663	     110.217764
	 B(10,9,11)       =         1.869701	     107.125966
	 B(10,9,12)       =         1.926170	     110.361431
	 B(11,9,12)       =         1.956480	     112.098038
	 B(13,12,14)      =         1.878281	     107.617559
	 D(1,3,6,7)       =        -1.662933	     -95.279039
	 D(1,3,6,8)       =         2.537713	     145.400239
	 D(1,3,6,9)       =         0.410142	      23.499415
	 D(1,12,9,6)      =        -0.408979	     -23.432763
	 D(1,12,9,10)     =         1.664234	      95.353584
	 D(1,12,9,11)     =        -2.536423	    -145.326353
	 D(2,1,3,4)       =        -0.853040	     -48.875585
	 D(2,1,3,5)       =        -2.900289	    -166.174303
	 D(2,1,3,6)       =         1.316681	      75.440242
	 D(2,1,12,9)      =        -1.317120	     -75.465416
	 D(2,1,12,13)     =         0.852626	      48.851871
	 D(2,1,12,14)     =         2.899824	     166.147691
	 D(3,1,12,9)      =         0.666677	      38.197751
	 D(3,1,12,13)     =         2.836422	     162.515038
	 D(3,1,12,14)     =        -1.399565	     -80.189143
	 D(3,6,9,10)      =        -2.069522	    -118.574870
	 D(3,6,9,11)      =         2.121138	     121.532269
	 D(3,6,9,12)      =        -0.000680	      -0.038941
	 D(4,3,1,12)      =        -2.836855	    -162.539823
	 D(4,3,6,7)       =         0.474104	      27.164159
	 D(4,3,6,8)       =        -1.608435	     -92.156563
	 D(4,3,6,9)       =         2.547179	     145.942613
	 D(5,3,1,12)      =         1.399081	      80.161459
	 D(5,3,6,7)       =         2.584519	     148.082021
	 D(5,3,6,8)       =         0.501979	      28.761299
	 D(5,3,6,9)       =        -1.625591	     -93.139525
	 D(6,3,1,12)      =        -0.667135	     -38.223995
	 D(6,9,12,13)     =        -2.546042	    -145.877446
	 D(6,9,12,14)     =         1.626789	      93.208118
	 D(7,6,9,10)      =        -0.000877	      -0.050252
	 D(7,6,9,11)      =        -2.093402	    -119.943113
	 D(7,6,9,12)      =         2.067965	     118.485677
	 D(8,6,9,10)      =         2.091684	     119.844667
	 D(8,6,9,11)      =        -0.000841	      -0.048194
	 D(8,6,9,12)      =        -2.122659	    -121.619404
	 D(10,9,12,13)    =        -0.472829	     -27.091099
	 D(10,9,12,14)    =        -2.583184	    -148.005535
	 D(11,9,12,13)    =         1.609699	      92.228965
	 D(11,9,12,14)    =        -0.500656	     -28.685471

	Current energy   :      -211.8495467169

	Energy change for the previous step:
		Projected    :        -0.0000005156
		Actual       :        -0.0000002481

	Performing BFGS update.
	Previous computed or guess Hessian on step 1.
	Steps to be used in Hessian update: 9 8
	Taking RFO optimization step.
	Going to follow RFO solution 1.
	Using RFO vector 1.
	Norm of target step-size    0.00075
	Projected energy change by RFO approximation:        -0.0000000613

	Back-transformation to cartesian coordinates...
	Could not converge backtransformation.
	Using first guess instead.

	--- Internal Coordinate Step in ANG or DEG, aJ/ANG or AJ/DEG ---
	 ---------------------------------------------------------------------------
	   Coordinate                Previous        Force       Change         New 
	   ----------                --------       ------       ------       ------
	    1 R(1,2)          =      1.022131     0.000126     0.000012     1.022143
	    2 R(1,3)          =      1.467996     0.000104    -0.000008     1.467988
	    3 R(1,12)         =      1.468008     0.000105    -0.000008     1.468000
	    4 R(3,4)          =      1.093317     0.000197     0.000033     1.093350
	    5 R(3,5)          =      1.095749     0.000102     0.000019     1.095768
	    6 R(3,6)          =      1.543615    -0.000187    -0.000027     1.543589
	    7 R(6,7)          =      1.094187     0.000021     0.000004     1.094190
	    8 R(6,8)          =      1.093761    -0.000033    -0.000001     1.093761
	    9 R(6,9)          =      1.546153     0.000208     0.000030     1.546183
	   10 R(9,10)         =      1.094182     0.000020     0.000004     1.094185
	   11 R(9,11)         =      1.093760    -0.000034    -0.000001     1.093760
	   12 R(9,12)         =      1.543671    -0.000183    -0.000026     1.543645
	   13 R(12,13)        =      1.093316     0.000197     0.000033     1.093349
	   14 R(12,14)        =      1.095745     0.000102     0.000019     1.095764
	   15 B(1,3,4)        =    110.660018     0.000001     0.004068   110.664086
	   16 B(1,3,5)        =    107.560779     0.000001     0.002350   107.563128
	   17 B(1,3,6)        =    106.948223    -0.000003    -0.008646   106.939577
	   18 B(1,12,9)       =    106.954249    -0.000003    -0.008583   106.945667
	   19 B(1,12,13)      =    110.658424     0.000001     0.004105   110.662529
	   20 B(1,12,14)      =    107.560057     0.000001     0.002428   107.562486
	   21 B(2,1,3)        =    107.799245    -0.000000     0.006405   107.805649
	   22 B(2,1,12)       =    107.800706    -0.000000     0.006524   107.807230
	   23 B(3,1,12)       =    102.685551     0.000003     0.004676   102.690227
	   24 B(3,6,7)        =    110.353944    -0.000000     0.002726   110.356670
	   25 B(3,6,8)        =    112.105036    -0.000001    -0.005149   112.099888
	   26 B(3,6,9)        =    103.992796     0.000001     0.000871   103.993667
	   27 B(4,3,5)        =    107.618887    -0.000001    -0.000653   107.618234
	   28 B(4,3,6)        =    113.686949     0.000000    -0.000158   113.686790
	   29 B(5,3,6)        =    110.218917     0.000001     0.003314   110.222231
	   30 B(6,9,10)       =    110.726674    -0.000000     0.003423   110.730097
	   31 B(6,9,11)       =    112.583141     0.000000    -0.000831   112.582310
	   32 B(6,9,12)       =    103.995020     0.000001     0.000862   103.995882
	   33 B(7,6,8)        =    107.126863     0.000000    -0.000813   107.126050
	   34 B(7,6,9)        =    110.724124    -0.000000     0.003325   110.727449
	   35 B(8,6,9)        =    112.587125     0.000000    -0.000748   112.586377
	   36 B(9,12,13)      =    113.685700     0.000000    -0.000206   113.685494
	   37 B(9,12,14)      =    110.217764     0.000001     0.003258   110.221022
	   38 B(10,9,11)      =    107.125966     0.000000    -0.000839   107.125127
	   39 B(10,9,12)      =    110.361431     0.000000     0.002879   110.364310
	   40 B(11,9,12)      =    112.098038    -0.000001    -0.005274   112.092764
	   41 B(13,12,14)     =    107.617559    -0.000001    -0.000721   107.616838
	   42 D(1,3,6,7)      =    -95.279039    -0.000000     0.000923   -95.278116
	   43 D(1,3,6,8)      =    145.400239     0.000000     0.003475   145.403714
	   44 D(1,3,6,9)      =     23.499415    -0.000000     0.006642    23.506057
	   45 D(1,12,9,6)     =    -23.432763     0.000000    -0.006009   -23.438772
	   46 D(1,12,9,10)    =     95.353584     0.000000    -0.000104    95.353480
	   47 D(1,12,9,11)    =   -145.326353    -0.000000    -0.002669  -145.329022
	   48 D(2,1,3,4)      =    -48.875585     0.000000     0.001543   -48.874042
	   49 D(2,1,3,5)      =   -166.174303     0.000000    -0.001293  -166.175596
	   50 D(2,1,3,6)      =     75.440242     0.000000    -0.001850    75.438392
	   51 D(2,1,12,9)     =    -75.465416    -0.000000     0.001688   -75.463728
	   52 D(2,1,12,13)    =     48.851871    -0.000000    -0.001700    48.850171
	   53 D(2,1,12,14)    =    166.147691    -0.000000     0.001121   166.148812
	   54 D(3,1,12,9)     =     38.197751     0.000000     0.013479    38.211230
	   55 D(3,1,12,13)    =    162.515038     0.000000     0.010091   162.525129
	   56 D(3,1,12,14)    =    -80.189143     0.000000     0.012912   -80.176230
	   57 D(3,6,9,10)     =   -118.574870    -0.000000    -0.005924  -118.580794
	   58 D(3,6,9,11)     =    121.532269    -0.000000    -0.006679   121.525591
	   59 D(3,6,9,12)     =     -0.038941     0.000000    -0.000375    -0.039315
	   60 D(4,3,1,12)     =   -162.539823    -0.000000    -0.010335  -162.550157
	   61 D(4,3,6,7)      =     27.164159    -0.000000    -0.000199    27.163961
	   62 D(4,3,6,8)      =    -92.156563     0.000000     0.002354   -92.154209
	   63 D(4,3,6,9)      =    145.942613    -0.000000     0.005521   145.948134
	   64 D(5,3,1,12)     =     80.161459    -0.000000    -0.013171    80.148289
	   65 D(5,3,6,7)      =    148.082021    -0.000000     0.001273   148.083294
	   66 D(5,3,6,8)      =     28.761299     0.000000     0.003826    28.765124
	   67 D(5,3,6,9)      =    -93.139525     0.000000     0.006992   -93.132533
	   68 D(6,3,1,12)     =    -38.223995    -0.000000    -0.013728   -38.237724
	   69 D(6,9,12,13)    =   -145.877446     0.000000    -0.004949  -145.882394
	   70 D(6,9,12,14)    =     93.208118    -0.000000    -0.006259    93.201859
	   71 D(7,6,9,10)     =     -0.050252    -0.000000    -0.000598    -0.050850
	   72 D(7,6,9,11)     =   -119.943113    -0.000000    -0.001353  -119.944466
	   73 D(7,6,9,12)     =    118.485677     0.000000     0.004951   118.490628
	   74 D(8,6,9,10)     =    119.844667     0.000000     0.000178   119.844845
	   75 D(8,6,9,11)     =     -0.048194    -0.000000    -0.000577    -0.048771
	   76 D(8,6,9,12)     =   -121.619404     0.000000     0.005727  -121.613676
	   77 D(10,9,12,13)   =    -27.091099     0.000000     0.000956   -27.090142
	   78 D(10,9,12,14)   =   -148.005535     0.000000    -0.000354  -148.005889
	   79 D(11,9,12,13)   =     92.228965    -0.000000    -0.001609    92.227356
	   80 D(11,9,12,14)   =    -28.685471    -0.000000    -0.002919   -28.688391
	 ---------------------------------------------------------------------------
	Successfully symmetrized geometry.

  ==> Convergence Check <==

  Measures of convergence in internal coordinates in au.
  Criteria marked as inactive (o), active & met (*), and active & unmet ( ).
  ---------------------------------------------------------------------------------------------
   Step     Total Energy     Delta E     MAX Force     RMS Force      MAX Disp      RMS Disp   
  ---------------------------------------------------------------------------------------------
    Convergence Criteria    1.00e-06 *    3.00e-04 *             o    1.20e-03 *             o
  ---------------------------------------------------------------------------------------------
     10    -211.84954672   -2.48e-07 *    3.51e-05 *    1.13e-05 o    2.40e-04 *    8.35e-05 o  ~
  ---------------------------------------------------------------------------------------------


  **** Optimization is complete! (in 10 steps) ****

  ==> Optimization Summary <==

  Measures of convergence in internal coordinates in au.
  --------------------------------------------------------------------------------------------------------------- ~
   Step         Total Energy             Delta E       MAX Force       RMS Force        MAX Disp        RMS Disp  ~
  --------------------------------------------------------------------------------------------------------------- ~
      1    -211.786068744373   -211.786068744373      0.08249110      0.02654287      0.14292506      0.04770174  ~
      2    -211.841535366860     -0.055466622486      0.01328507      0.00441083      0.13604257      0.05554725  ~
      3    -211.845903386845     -0.004368019985      0.00385324      0.00116393      0.13263680      0.05567985  ~
      4    -211.847824447409     -0.001921060564      0.00412391      0.00076878      0.13383292      0.05565535  ~
      5    -211.849063396777     -0.001238949369      0.00415895      0.00093888      0.03474850      0.01397946  ~
      6    -211.849349524806     -0.000286128028      0.00114708      0.00030966      0.03079836      0.01395992  ~
      7    -211.849485428268     -0.000135903462      0.00027246      0.00011681      0.03423831      0.01397842  ~
      8    -211.849543293417     -0.000057865149      0.00037363      0.00009328      0.00750490      0.00373304  ~
      9    -211.849546468777     -0.000003175360      0.00011879      0.00003737      0.00149087      0.00047974  ~
     10    -211.849546716881     -0.000000248104      0.00003505      0.00001127      0.00023960      0.00008352  ~
  --------------------------------------------------------------------------------------------------------------- ~

	Writing optimization data to binary file.
	Final energy is   -211.8495467168810
	Final (previous) structure:
	Cartesian Geometry (in Angstrom)
	    N    -0.8513835725   0.5454015741   0.7478134128
	    H    -0.3523457265   0.5995929456   1.6381934071
	    C    -0.0265932662   1.2079241355  -0.2699283574
	    H     0.3085770110   2.1870430400   0.0826751988
	    H    -0.6567122097   1.3707382418  -1.1514654026
	    C     1.1287941233   0.2427584958  -0.6109321340
	    H     2.0169520463   0.4889207858  -0.0211660454
	    H     1.4157967659   0.3004014176  -1.6647917471
	    C     0.5808967591  -1.1491896986  -0.2199355109
	    H     1.1951265169  -1.6006074163   0.5650339945
	    H     0.5694075484  -1.8476428003  -1.0615666690
	    C    -0.8387029654  -0.8559966355   0.3108125730
	    H    -1.1483627848  -1.5167344943   1.1249845989
	    H    -1.5730800481  -0.9573316332  -0.4960814716
	Saving final (previous) structure.
			--------------------------
			 OPTKING Finished Execution 
			--------------------------

    Final optimized geometry and variables:
    Molecular point group: c1
    Full point group: C1

    Geometry (in Angstrom), charge = 0, multiplicity = 1:

    N           -0.851383575847     0.545401576222     0.747813415726
    H           -0.352345727928     0.599592947948     1.638193413524
    C           -0.026593266302     1.207924140237    -0.269928358509
    H            0.308577012235     2.187043048549     0.082675199158
    H           -0.656712212286     1.370738247192    -1.151465407112
    C            1.128794127761     0.242758496768    -0.610932136414
    H            2.016952054235     0.488920787753    -0.021166045504
    H            1.415796771435     0.300401418793    -1.664791753657
    C            0.580896761378    -1.149189703140    -0.219935511754
    H            1.195126521620    -1.600607422633     0.565033996747
    H            0.569407550630    -1.847642807610    -1.061566673206
    C           -0.838702968673    -0.855996638817     0.310812574256
    H           -1.148362789281    -1.516734500287     1.124984603326
    H           -1.573080054265    -0.957331636962    -0.496081473508

	Removing binary optimization data file.
	Cleaning optimization helper files.

    Psi4 stopped on: Tuesday, 13 April 2021 02:26PM
    Psi4 wall time for execution: 0:00:19.83

*** Psi4 exiting successfully. Buy a developer a beer!
