 Entering Gaussian System, Link 0=g16
 Initial command:
 /home1/apps/gaussian/16rA.03/g16/l1.exe "/tmp/Gau-265559.inp" -scrdir="/tmp/"
 Entering Link 1 = /home1/apps/gaussian/16rA.03/g16/l1.exe PID=    265560.
  
 Copyright (c) 1988,1990,1992,1993,1995,1998,2003,2009,2016,
            Gaussian, Inc.  All Rights Reserved.
  
 This is part of the Gaussian(R) 16 program.  It is based on
 the Gaussian(R) 09 system (copyright 2009, Gaussian, Inc.),
 the Gaussian(R) 03 system (copyright 2003, Gaussian, Inc.),
 the Gaussian(R) 98 system (copyright 1998, Gaussian, Inc.),
 the Gaussian(R) 94 system (copyright 1995, Gaussian, Inc.),
 the Gaussian 92(TM) system (copyright 1992, Gaussian, Inc.),
 the Gaussian 90(TM) system (copyright 1990, Gaussian, Inc.),
 the Gaussian 88(TM) system (copyright 1988, Gaussian, Inc.),
 the Gaussian 86(TM) system (copyright 1986, Carnegie Mellon
 University), and the Gaussian 82(TM) system (copyright 1983,
 Carnegie Mellon University). Gaussian is a federally registered
 trademark of Gaussian, Inc.
  
 This software contains proprietary and confidential information,
 including trade secrets, belonging to Gaussian, Inc.
  
 This software is provided under written license and may be
 used, copied, transmitted, or stored only in accord with that
 written license.
  
 The following legend is applicable only to US Government
 contracts under FAR:
  
                    RESTRICTED RIGHTS LEGEND
  
 Use, reproduction and disclosure by the US Government is
 subject to restrictions as set forth in subparagraphs (a)
 and (c) of the Commercial Computer Software - Restricted
 Rights clause in FAR 52.227-19.
  
 Gaussian, Inc.
 340 Quinnipiac St., Bldg. 40, Wallingford CT 06492
  
  
 ---------------------------------------------------------------
 Warning -- This program may not be used in any manner that
 competes with the business of Gaussian, Inc. or will provide
 assistance to any competitor of Gaussian, Inc.  The licensee
 of this program is prohibited from giving any competitor of
 Gaussian, Inc. access to this program.  By using this program,
 the user acknowledges that Gaussian, Inc. is engaged in the
 business of creating and licensing software in the field of
 computational chemistry and represents and warrants to the
 licensee that it is not a competitor of Gaussian, Inc. and that
 it will not use this program in any manner prohibited above.
 ---------------------------------------------------------------
  

 Cite this work as:
 Gaussian 16, Revision A.03,
 M. J. Frisch, G. W. Trucks, H. B. Schlegel, G. E. Scuseria, 
 M. A. Robb, J. R. Cheeseman, G. Scalmani, V. Barone, 
 G. A. Petersson, H. Nakatsuji, X. Li, M. Caricato, A. V. Marenich, 
 J. Bloino, B. G. Janesko, R. Gomperts, B. Mennucci, H. P. Hratchian, 
 J. V. Ortiz, A. F. Izmaylov, J. L. Sonnenberg, D. Williams-Young, 
 F. Ding, F. Lipparini, F. Egidi, J. Goings, B. Peng, A. Petrone, 
 T. Henderson, D. Ranasinghe, V. G. Zakrzewski, J. Gao, N. Rega, 
 G. Zheng, W. Liang, M. Hada, M. Ehara, K. Toyota, R. Fukuda, 
 J. Hasegawa, M. Ishida, T. Nakajima, Y. Honda, O. Kitao, H. Nakai, 
 T. Vreven, K. Throssell, J. A. Montgomery, Jr., J. E. Peralta, 
 F. Ogliaro, M. J. Bearpark, J. J. Heyd, E. N. Brothers, K. N. Kudin, 
 V. N. Staroverov, T. A. Keith, R. Kobayashi, J. Normand, 
 K. Raghavachari, A. P. Rendell, J. C. Burant, S. S. Iyengar, 
 J. Tomasi, M. Cossi, J. M. Millam, M. Klene, C. Adamo, R. Cammi, 
 J. W. Ochterski, R. L. Martin, K. Morokuma, O. Farkas, 
 J. B. Foresman, and D. J. Fox, Gaussian, Inc., Wallingford CT, 2016.
 
 ******************************************
 Gaussian 16:  ES64L-G16RevA.03 25-Dec-2016
                 2-Apr-2021 
 ******************************************
 %chk=hess.chk
 %nproc=1
 Will use up to    1 processors via shared memory.
 %mem=1GB
 ----------------------------------------------------------------------
 # MP2/6-31G* Geom=(AllCheck,ModRedundant) Freq NoSymm IOp(7/33=1) SCF=
 Tight Guess=Read
 ----------------------------------------------------------------------
 1/10=4,18=120,29=7,30=1,38=1/1,3;
 2/12=2,15=1,40=1/2;
 3/5=1,6=6,7=1,11=9,14=-4,25=1,30=1,71=2,116=-2,140=1/1,2,3;
 4/5=1/1;
 5/5=2,32=2,38=6,98=1/2;
 8/6=3,8=1,10=2,19=11,30=-1/1;
 9/15=3,16=-3/6;
 11/6=1,8=1,15=11,17=12,24=-1,27=1,28=-2,29=300,31=1,32=6,42=3/1,2,10;
 10/6=2,21=1,31=1/2;
 8/6=4,8=1,10=2,19=11,30=-1/11,4;
 10/5=1,20=4,31=1/2;
 11/12=2,14=11,16=1,17=2,28=-2,31=1,42=3/2,10,12;
 6/7=2,8=2,9=2,10=2/1;
 7/8=1,10=1,12=2,25=1,30=1,33=1,44=2/1,2,3,16;
 1/10=4,30=1/3;
 99//99;
 Structure from the checkpoint file:  "hess.chk"
 --------------------------------------------------
 <qmtool> simtype="Geometry optimization" </qmtool>
 --------------------------------------------------
 Charge =  0 Multiplicity = 1
 Redundant internal coordinates found in file.  (old form).
 N,0,0.8441808368,0.4564417234,0.9234025667
 H,0,1.371838822,0.4952136614,1.7982185673
 C,0,1.6433647223,1.125497977,-0.1125640548
 H,0,1.999860407,2.0965224193,0.2427092987
 H,0,0.9868037417,1.3069907921,-0.9712853134
 C,0,2.7788373943,0.1531428452,-0.5038666436
 H,0,3.688714591,0.3838226843,0.0590959286
 H,0,3.0313333752,0.2217824396,-1.5662398336
 C,0,2.2306181995,-1.2400684749,-0.1120416693
 H,0,2.866331496,-1.707265853,0.6466442726
 H,0,2.1848668795,-1.9277692582,-0.9617925335
 C,0,0.8303906209,-0.9411399762,0.4693468539
 H,0,0.5424787058,-1.6090198639,1.2861921937
 H,0,0.0683803881,-1.0271512162,-0.3138195732
 Recover connectivity data from disk.
 The following ModRedundant input section has been read:
 B    *       *    K                                                           
 In this task builder options are not available,
 so the previous line wont be used.
 A    *       *       *    K                                                   
 In this task builder options are not available,
 so the previous line wont be used.
 L    *       *       *    K                                                   
 In this task builder options are not available,
 so the previous line wont be used.
 D    *       *       *       *    K                                           
 B       1       2 A                                                           
 B       1       3 A                                                           
 B       1      12 A                                                           
 B       3       4 A                                                           
 B       3       5 A                                                           
 B       3       6 A                                                           
 B       6       7 A                                                           
 B       6       8 A                                                           
 B       6       9 A                                                           
 B       9      10 A                                                           
 B       9      11 A                                                           
 B       9      12 A                                                           
 B      12      13 A                                                           
 B      12      14 A                                                           
 A       1       3       4 A                                                   
 A       1       3       5 A                                                   
 A       1       3       6 A                                                   
 A       1      12       9 A                                                   
 A       1      12      13 A                                                   
 A       1      12      14 A                                                   
 A       2       1       3 A                                                   
 A       2       1      12 A                                                   
 A       3       1      12 A                                                   
 A       3       6       7 A                                                   
 A       3       6       8 A                                                   
 A       3       6       9 A                                                   
 A       4       3       5 A                                                   
 A       4       3       6 A                                                   
 A       5       3       6 A                                                   
 A       6       9      10 A                                                   
 A       6       9      11 A                                                   
 A       6       9      12 A                                                   
 A       7       6       8 A                                                   
 A       7       6       9 A                                                   
 A       8       6       9 A                                                   
 A       9      12      13 A                                                   
 A       9      12      14 A                                                   
 A      10       9      11 A                                                   
 A      10       9      12 A                                                   
 A      11       9      12 A                                                   
 A      13      12      14 A                                                   
 D       2       1       3       4 A                                           
 D       2       1       3       5 A                                           
 D       2       1       3       6 A                                           
 D      12       1       3       4 A                                           
 D      12       1       3       5 A                                           
 D      12       1       3       6 A                                           
 D       2       1      12       9 A                                           
 D       2       1      12      13 A                                           
 D       2       1      12      14 A                                           
 D       3       1      12       9 A                                           
 D       3       1      12      13 A                                           
 D       3       1      12      14 A                                           
 D       1       3       6       7 A                                           
 D       1       3       6       8 A                                           
 D       1       3       6       9 A                                           
 D       4       3       6       7 A                                           
 D       4       3       6       8 A                                           
 D       4       3       6       9 A                                           
 D       5       3       6       7 A                                           
 D       5       3       6       8 A                                           
 D       5       3       6       9 A                                           
 D       3       6       9      10 A                                           
 D       3       6       9      11 A                                           
 D       3       6       9      12 A                                           
 D       7       6       9      10 A                                           
 D       7       6       9      11 A                                           
 D       7       6       9      12 A                                           
 D       8       6       9      10 A                                           
 D       8       6       9      11 A                                           
 D       8       6       9      12 A                                           
 D       6       9      12       1 A                                           
 D       6       9      12      13 A                                           
 D       6       9      12      14 A                                           
 D      10       9      12       1 A                                           
 D      10       9      12      13 A                                           
 D      10       9      12      14 A                                           
 D      11       9      12       1 A                                           
 D      11       9      12      13 A                                           
 D      11       9      12      14 A                                           
 

 GradGradGradGradGradGradGradGradGradGradGradGradGradGradGradGradGradGrad
 Berny optimization.
 Initialization pass.
                           ----------------------------
                           !    Initial Parameters    !
                           ! (Angstroms and Degrees)  !
 --------------------------                            --------------------------
 ! Name  Definition              Value          Derivative Info.                !
 --------------------------------------------------------------------------------
 ! R1    R(1,2)                  1.0224         calculate D2E/DX2 analytically  !
 ! R2    R(1,3)                  1.4695         calculate D2E/DX2 analytically  !
 ! R3    R(1,12)                 1.4696         calculate D2E/DX2 analytically  !
 ! R4    R(3,4)                  1.0937         calculate D2E/DX2 analytically  !
 ! R5    R(3,5)                  1.0961         calculate D2E/DX2 analytically  !
 ! R6    R(3,6)                  1.5453         calculate D2E/DX2 analytically  !
 ! R7    R(6,7)                  1.0945         calculate D2E/DX2 analytically  !
 ! R8    R(6,8)                  1.0941         calculate D2E/DX2 analytically  !
 ! R9    R(6,9)                  1.5476         calculate D2E/DX2 analytically  !
 ! R10   R(9,10)                 1.0945         calculate D2E/DX2 analytically  !
 ! R11   R(9,11)                 1.0941         calculate D2E/DX2 analytically  !
 ! R12   R(9,12)                 1.5453         calculate D2E/DX2 analytically  !
 ! R13   R(12,13)                1.0937         calculate D2E/DX2 analytically  !
 ! R14   R(12,14)                1.0961         calculate D2E/DX2 analytically  !
 ! A1    A(2,1,3)              107.7745         calculate D2E/DX2 analytically  !
 ! A2    A(2,1,12)             107.7758         calculate D2E/DX2 analytically  !
 ! A3    A(3,1,12)             102.725          calculate D2E/DX2 analytically  !
 ! A4    A(1,3,4)              110.6391         calculate D2E/DX2 analytically  !
 ! A5    A(1,3,5)              107.5731         calculate D2E/DX2 analytically  !
 ! A6    A(1,3,6)              106.956          calculate D2E/DX2 analytically  !
 ! A7    A(4,3,5)              107.6214         calculate D2E/DX2 analytically  !
 ! A8    A(4,3,6)              113.6661         calculate D2E/DX2 analytically  !
 ! A9    A(5,3,6)              110.2399         calculate D2E/DX2 analytically  !
 ! A10   A(3,6,7)              110.3633         calculate D2E/DX2 analytically  !
 ! A11   A(3,6,8)              112.0846         calculate D2E/DX2 analytically  !
 ! A12   A(3,6,9)              104.0082         calculate D2E/DX2 analytically  !
 ! A13   A(7,6,8)              107.1186         calculate D2E/DX2 analytically  !
 ! A14   A(7,6,9)              110.7309         calculate D2E/DX2 analytically  !
 ! A15   A(8,6,9)              112.5853         calculate D2E/DX2 analytically  !
 ! A16   A(6,9,10)             110.7329         calculate D2E/DX2 analytically  !
 ! A17   A(6,9,11)             112.5825         calculate D2E/DX2 analytically  !
 ! A18   A(6,9,12)             104.0097         calculate D2E/DX2 analytically  !
 ! A19   A(10,9,11)            107.1179         calculate D2E/DX2 analytically  !
 ! A20   A(10,9,12)            110.3687         calculate D2E/DX2 analytically  !
 ! A21   A(11,9,12)            112.0795         calculate D2E/DX2 analytically  !
 ! A22   A(1,12,9)             106.9603         calculate D2E/DX2 analytically  !
 ! A23   A(1,12,13)            110.6378         calculate D2E/DX2 analytically  !
 ! A24   A(1,12,14)            107.5728         calculate D2E/DX2 analytically  !
 ! A25   A(9,12,13)            113.6651         calculate D2E/DX2 analytically  !
 ! A26   A(9,12,14)            110.2391         calculate D2E/DX2 analytically  !
 ! A27   A(13,12,14)           107.6205         calculate D2E/DX2 analytically  !
 ! D1    D(2,1,3,4)            -48.7603         calculate D2E/DX2 analytically  !
 ! D2    D(2,1,3,5)           -166.0577         calculate D2E/DX2 analytically  !
 ! D3    D(2,1,3,6)             75.5217         calculate D2E/DX2 analytically  !
 ! D4    D(12,1,3,4)          -162.4048         calculate D2E/DX2 analytically  !
 ! D5    D(12,1,3,5)            80.2977         calculate D2E/DX2 analytically  !
 ! D6    D(12,1,3,6)           -38.1228         calculate D2E/DX2 analytically  !
 ! D7    D(2,1,12,9)           -75.5395         calculate D2E/DX2 analytically  !
 ! D8    D(2,1,12,13)           48.7434         calculate D2E/DX2 analytically  !
 ! D9    D(2,1,12,14)          166.0389         calculate D2E/DX2 analytically  !
 ! D10   D(3,1,12,9)            38.1042         calculate D2E/DX2 analytically  !
 ! D11   D(3,1,12,13)          162.387          calculate D2E/DX2 analytically  !
 ! D12   D(3,1,12,14)          -80.3175         calculate D2E/DX2 analytically  !
 ! D13   D(1,3,6,7)            -95.3726         calculate D2E/DX2 analytically  !
 ! D14   D(1,3,6,8)            145.3241         calculate D2E/DX2 analytically  !
 ! D15   D(1,3,6,9)             23.427          calculate D2E/DX2 analytically  !
 ! D16   D(4,3,6,7)             27.0363         calculate D2E/DX2 analytically  !
 ! D17   D(4,3,6,8)            -92.2669         calculate D2E/DX2 analytically  !
 ! D18   D(4,3,6,9)            145.8359         calculate D2E/DX2 analytically  !
 ! D19   D(5,3,6,7)            147.9583         calculate D2E/DX2 analytically  !
 ! D20   D(5,3,6,8)             28.6551         calculate D2E/DX2 analytically  !
 ! D21   D(5,3,6,9)            -93.2421         calculate D2E/DX2 analytically  !
 ! D22   D(3,6,9,10)          -118.5835         calculate D2E/DX2 analytically  !
 ! D23   D(3,6,9,11)           121.5301         calculate D2E/DX2 analytically  !
 ! D24   D(3,6,9,12)            -0.0277         calculate D2E/DX2 analytically  !
 ! D25   D(7,6,9,10)            -0.0358         calculate D2E/DX2 analytically  !
 ! D26   D(7,6,9,11)          -119.9222         calculate D2E/DX2 analytically  !
 ! D27   D(7,6,9,12)           118.52           calculate D2E/DX2 analytically  !
 ! D28   D(8,6,9,10)           119.852          calculate D2E/DX2 analytically  !
 ! D29   D(8,6,9,11)            -0.0344         calculate D2E/DX2 analytically  !
 ! D30   D(8,6,9,12)          -121.5921         calculate D2E/DX2 analytically  !
 ! D31   D(6,9,12,1)           -23.3796         calculate D2E/DX2 analytically  !
 ! D32   D(6,9,12,13)         -145.7893         calculate D2E/DX2 analytically  !
 ! D33   D(6,9,12,14)           93.2911         calculate D2E/DX2 analytically  !
 ! D34   D(10,9,12,1)           95.4258         calculate D2E/DX2 analytically  !
 ! D35   D(10,9,12,13)         -26.9839         calculate D2E/DX2 analytically  !
 ! D36   D(10,9,12,14)        -147.9035         calculate D2E/DX2 analytically  !
 ! D37   D(11,9,12,1)         -145.2715         calculate D2E/DX2 analytically  !
 ! D38   D(11,9,12,13)          92.3188         calculate D2E/DX2 analytically  !
 ! D39   D(11,9,12,14)         -28.6008         calculate D2E/DX2 analytically  !
 --------------------------------------------------------------------------------
 Trust Radius=3.00D-01 FncErr=1.00D-07 GrdErr=1.00D-07 EigMax=2.50D+02 EigMin=1.00D-04
 Number of steps in this run=      2 maximum allowed number of steps=      2.
 GradGradGradGradGradGradGradGradGradGradGradGradGradGradGradGradGradGrad

                          Input orientation:                          
 ---------------------------------------------------------------------
 Center     Atomic      Atomic             Coordinates (Angstroms)
 Number     Number       Type             X           Y           Z
 ---------------------------------------------------------------------
      1          7           0        0.844181    0.456442    0.923403
      2          1           0        1.371839    0.495214    1.798219
      3          6           0        1.643365    1.125498   -0.112564
      4          1           0        1.999860    2.096522    0.242709
      5          1           0        0.986804    1.306991   -0.971285
      6          6           0        2.778837    0.153143   -0.503867
      7          1           0        3.688715    0.383823    0.059096
      8          1           0        3.031333    0.221782   -1.566240
      9          6           0        2.230618   -1.240068   -0.112042
     10          1           0        2.866331   -1.707266    0.646644
     11          1           0        2.184867   -1.927769   -0.961793
     12          6           0        0.830391   -0.941140    0.469347
     13          1           0        0.542479   -1.609020    1.286192
     14          1           0        0.068380   -1.027151   -0.313820
 ---------------------------------------------------------------------
                    Distance matrix (angstroms):
                    1          2          3          4          5
     1  N    0.000000
     2  H    1.022365   0.000000
     3  C    1.469543   2.030289   0.000000
     4  H    2.118680   2.319097   1.093708   0.000000
     5  H    2.081734   2.911595   1.096090   1.767322   0.000000
     6  C    2.423218   2.719605   1.545280   2.222815   2.182024
     7  H    2.973831   2.899115   2.182431   2.412319   3.035498
     8  H    3.322201   3.761418   2.203709   2.801943   2.389927
     9  C    2.423324   2.719890   2.437370   3.363322   2.961906
    10  H    2.974444   2.900094   3.177514   3.922084   3.903340
    11  H    3.322027   3.761585   3.215098   4.204756   3.449510
    12  C    1.469555   2.030315   2.295766   3.262885   2.674692
    13  H    2.118672   2.319010   3.262830   4.116292   3.714397
    14  H    2.081738   2.911581   2.674879   3.714522   2.593064
                    6          7          8          9         10
     6  C    0.000000
     7  H    1.094539   0.000000
     8  H    1.094122   1.760717   0.000000
     9  C    1.547614   2.189145   2.211978   0.000000
    10  H    2.189167   2.322537   2.940291   1.094536   0.000000
    11  H    2.211943   2.940617   2.387977   1.094122   1.760706
    12  C    2.437426   3.177082   3.215610   1.545318   2.182530
    13  H    3.363157   3.921223   4.205069   2.222836   2.412253
    14  H    2.962396   3.903426   3.450722   2.182045   3.035387
                   11         12         13         14
    11  H    0.000000
    12  C    2.203679   0.000000
    13  H    2.802227   1.093706   0.000000
    14  H    2.389665   1.096087   1.767308   0.000000
 Symmetry turned off by external request.
 Stoichiometry    C4H9N
 Framework group  C1[X(C4H9N)]
 Deg. of freedom    36
 Full point group                 C1      NOp   1
 Rotational constants (GHZ):           6.8853693           6.6920135           3.9132675
 Standard basis: 6-31G(d) (6D, 7F)
    93 basis functions,   176 primitive gaussians,    93 cartesian basis functions
    20 alpha electrons       20 beta electrons
       nuclear repulsion energy       190.0096770448 Hartrees.
 NAtoms=   14 NActive=   14 NUniq=   14 SFac= 1.00D+00 NAtFMM=   60 NAOKFM=F Big=F
 Integral buffers will be    131072 words long.
 Raffenetti 1 integral format.
 Two-electron integral symmetry is turned off.
 One-electron integrals computed using PRISM.
 NBasis=    93 RedAO= T EigKep=  3.15D-03  NBF=    93
 NBsUse=    93 1.00D-06 EigRej= -1.00D+00 NBFU=    93
 Initial guess from the checkpoint file:  "hess.chk"
 B after Tr=     3.191234   -0.188367    0.242300
         Rot=    0.143097    0.810301    0.511917   -0.246732 Ang= 163.55 deg.
 Keep R1 ints in memory in canonical form, NReq=10436094.
 Requested convergence on RMS density matrix=1.00D-08 within 128 cycles.
 Requested convergence on MAX density matrix=1.00D-06.
 Requested convergence on             energy=1.00D-06.
 No special actions if energy rises.
 SCF Done:  E(RHF) =  -211.143212019     A.U. after    1 cycles
            NFock=  1  Conv=0.82D-09     -V/T= 2.0015
 ExpMin= 1.61D-01 ExpMax= 4.17D+03 ExpMxC= 6.27D+02 IAcc=3 IRadAn=         5 AccDes= 0.00D+00
 HarFok:  IExCor=  205 AccDes= 0.00D+00 IRadAn=         5 IDoV=-2 UseB2=F ITyADJ=14
 ICtDFT= 12500011 ScaDFX=  1.000000  1.000000  1.000000  1.000000
 Range of M.O.s used for correlation:     6    93
 NBasis=    93 NAE=    20 NBE=    20 NFC=     5 NFV=     0
 NROrb=     88 NOA=    15 NOB=    15 NVA=    73 NVB=    73
 Disk-based method using ON**2 memory for 15 occupieds at a time.
 Permanent disk used for amplitudes=     2630920 words.
 Estimated scratch disk usage=    23933802 words.
 Actual    scratch disk usage=    22362986 words.
 JobTyp=1 Pass  1:  I=   6 to  20 NPSUse=  1 ParTrn=F ParDer=F DoDerP=T.
 (rs|ai) integrals will be sorted in core.
 Spin components of T(2) and E(2):
     alpha-alpha T2 =       0.2790741688D-01 E2=     -0.8404956748D-01
     alpha-beta  T2 =       0.1679125046D+00 E2=     -0.5160403102D+00
     beta-beta   T2 =       0.2790741688D-01 E2=     -0.8404956748D-01
 ANorm=    0.1106222102D+01
 E2 =    -0.6841394451D+00 EUMP2 =    -0.21182735146372D+03
 G2DrvN: will do    15 centers at a time, making    1 passes.
 Calling FoFCou, ICntrl=  3107 FMM=F I1Cent=   0 AccDes= 0.00D+00.
 End of G2Drv F.D. properties file   721 does not exist.
 End of G2Drv F.D. properties file   722 does not exist.
 End of G2Drv F.D. properties file   788 does not exist.
          IDoAtm=11111111111111
          Differentiating once with respect to electric field.
                with respect to dipole field.
          Differentiating once with respect to nuclear coordinates.
 Keep R1 ints in memory in canonical form, NReq=10437636.
          There are    45 degrees of freedom in the 1st order CPHF.  IDoFFX=6 NUNeed=    45.
     42 vectors produced by pass  0 Test12= 3.24D-15 2.22D-09 XBig12= 1.12D+01 9.95D-01.
 AX will form    42 AO Fock derivatives at one time.
     42 vectors produced by pass  1 Test12= 3.24D-15 2.22D-09 XBig12= 2.94D-01 9.98D-02.
     42 vectors produced by pass  2 Test12= 3.24D-15 2.22D-09 XBig12= 4.31D-03 1.08D-02.
     42 vectors produced by pass  3 Test12= 3.24D-15 2.22D-09 XBig12= 1.87D-05 8.76D-04.
     42 vectors produced by pass  4 Test12= 3.24D-15 2.22D-09 XBig12= 1.02D-07 5.66D-05.
     42 vectors produced by pass  5 Test12= 3.24D-15 2.22D-09 XBig12= 4.77D-10 3.47D-06.
     23 vectors produced by pass  6 Test12= 3.24D-15 2.22D-09 XBig12= 1.92D-12 2.60D-07.
      3 vectors produced by pass  7 Test12= 3.24D-15 2.22D-09 XBig12= 8.00D-15 1.45D-08.
 InvSVY:  IOpt=1 It=  1 EMax= 2.66D-15
 Solved reduced A of dimension   278 with    45 vectors.
 End of Minotr F.D. properties file   721 does not exist.
 End of Minotr F.D. properties file   722 does not exist.
 End of Minotr F.D. properties file   788 does not exist.
 MDV=   134217728.
 Form MO integral derivatives with frozen-active canonical formalism.
 Discarding MO integrals.
 Reordered first order wavefunction length =      4263200
 In DefCFB: NBatch=  1 ICI= 20 ICA= 73 LFMax= 25
            Large arrays: LIAPS=    50510160 LIARS=    14256900 words.
 Semi-Direct transformation.
 ModeAB=           2 MOrb=            20 LenV=     133863471
 LASXX=      6763345 LTotXX=     6763345 LenRXX=     6763345
 LTotAB=     6992970 MaxLAS=     8130060 LenRXY=     8130060
 NonZer=    13526690 LenScr=    21067776 LnRSAI=           0
 LnScr1=           0 LExtra=           0 Total=     35961181
 MaxDsk=          -1 SrtSym=           F ITran=            4
 JobTyp=0 Pass  1:  I=   1 to  20.
 (rs|ai) integrals will be sorted in core.
 Spin components of T(2) and E(2):
     alpha-alpha T2 =       0.2790741688D-01 E2=     -0.8404956748D-01
     alpha-beta  T2 =       0.1679125046D+00 E2=     -0.5160403102D+00
     beta-beta   T2 =       0.2790741688D-01 E2=     -0.8404956748D-01
 ANorm=    0.1564434299D+01
 E2 =    -0.6841394451D+00 EUMP2 =    -0.21182735146372D+03
          IDoAtm=11111111111111
          Differentiating once with respect to electric field.
                with respect to dipole field.
          Differentiating once with respect to nuclear coordinates.
          There are     1 degrees of freedom in the 1st order CPHF.  IDoFFX=0 NUNeed=     1.
 LinEq1:  Iter=  0 NonCon=     1 RMS=4.26D-03 Max=4.53D-02 NDo=     1
 LinEq1:  Iter=  1 NonCon=     1 RMS=1.43D-03 Max=1.40D-02 NDo=     1
 LinEq1:  Iter=  2 NonCon=     1 RMS=2.90D-04 Max=3.42D-03 NDo=     1
 LinEq1:  Iter=  3 NonCon=     1 RMS=5.59D-05 Max=4.10D-04 NDo=     1
 LinEq1:  Iter=  4 NonCon=     1 RMS=1.19D-05 Max=1.55D-04 NDo=     1
 LinEq1:  Iter=  5 NonCon=     1 RMS=4.51D-06 Max=4.00D-05 NDo=     1
 LinEq1:  Iter=  6 NonCon=     1 RMS=1.05D-06 Max=1.55D-05 NDo=     1
 LinEq1:  Iter=  7 NonCon=     1 RMS=1.92D-07 Max=1.83D-06 NDo=     1
 LinEq1:  Iter=  8 NonCon=     1 RMS=6.32D-08 Max=5.78D-07 NDo=     1
 LinEq1:  Iter=  9 NonCon=     1 RMS=1.37D-08 Max=1.25D-07 NDo=     1
 LinEq1:  Iter= 10 NonCon=     1 RMS=3.65D-09 Max=2.95D-08 NDo=     1
 LinEq1:  Iter= 11 NonCon=     1 RMS=6.11D-10 Max=7.96D-09 NDo=     1
 LinEq1:  Iter= 12 NonCon=     1 RMS=1.20D-10 Max=1.50D-09 NDo=     1
 LinEq1:  Iter= 13 NonCon=     0 RMS=1.90D-11 Max=1.76D-10 NDo=     1
 Linear equations converged to 1.000D-10 1.000D-09 after    13 iterations.
 End of Minotr F.D. properties file   721 does not exist.
 End of Minotr F.D. properties file   722 does not exist.
 End of Minotr F.D. properties file   788 does not exist.
 Symmetrizing basis deriv contribution to polar:
 IMax=3 JMax=2 DiffMx= 0.00D+00
 G2DrvN: will do    15 centers at a time, making    1 passes.
 Calling FoFCou, ICntrl=  3107 FMM=F I1Cent=   0 AccDes= 0.00D+00.
 End of G2Drv F.D. properties file   721 does not exist.
 End of G2Drv F.D. properties file   722 does not exist.
 End of G2Drv F.D. properties file   788 does not exist.
 R2 and R3 integrals will be kept in memory, NReq=    19930012.
 DD1Dir will call FoFMem   1 times, MxPair=       420
 NAB=   210 NAA=     0 NBB=     0.
 Discarding MO integrals.

 **********************************************************************

            Population analysis using the SCF density.

 **********************************************************************

 Alpha  occ. eigenvalues --  -15.54076 -11.24196 -11.24194 -11.21855 -11.21800
 Alpha  occ. eigenvalues --   -1.21652  -1.01922  -0.96907  -0.81413  -0.78332
 Alpha  occ. eigenvalues --   -0.67529  -0.63697  -0.58963  -0.58388  -0.50627
 Alpha  occ. eigenvalues --   -0.49279  -0.47934  -0.47629  -0.45728  -0.37277
 Alpha virt. eigenvalues --    0.21286   0.24725   0.28662   0.29027   0.30119
 Alpha virt. eigenvalues --    0.32563   0.33860   0.33952   0.36378   0.37743
 Alpha virt. eigenvalues --    0.40784   0.41401   0.48525   0.52440   0.72775
 Alpha virt. eigenvalues --    0.76267   0.76624   0.79768   0.80365   0.83828
 Alpha virt. eigenvalues --    0.90498   0.92046   0.92590   0.94955   1.01867
 Alpha virt. eigenvalues --    1.02448   1.09461   1.10987   1.12825   1.13151
 Alpha virt. eigenvalues --    1.15433   1.17193   1.19501   1.20853   1.21106
 Alpha virt. eigenvalues --    1.23747   1.24018   1.24152   1.49499   1.52553
 Alpha virt. eigenvalues --    1.59198   1.59550   1.69289   1.90965   2.00837
 Alpha virt. eigenvalues --    2.08696   2.12274   2.13537   2.19820   2.22432
 Alpha virt. eigenvalues --    2.29048   2.31779   2.35025   2.42289   2.43238
 Alpha virt. eigenvalues --    2.43371   2.51065   2.57275   2.59165   2.71459
 Alpha virt. eigenvalues --    2.73634   2.81726   2.90004   2.95580   2.97829
 Alpha virt. eigenvalues --    2.98898   3.02812   3.24105   4.34946   4.60739
 Alpha virt. eigenvalues --    4.68033   4.86129   5.04384
          Condensed to atoms (all electrons):
               1          2          3          4          5          6
     1  N    7.058620   0.327478   0.294175  -0.033375  -0.047584  -0.085018
     2  H    0.327478   0.433261  -0.042365  -0.005370   0.005679  -0.000682
     3  C    0.294175  -0.042365   4.977511   0.403837   0.406036   0.333714
     4  H   -0.033375  -0.005370   0.403837   0.520783  -0.026319  -0.035518
     5  H   -0.047584   0.005679   0.406036  -0.026319   0.545244  -0.053925
     6  C   -0.085018  -0.000682   0.333714  -0.035518  -0.053925   5.205667
     7  H    0.002642   0.000960  -0.038354  -0.004199   0.003832   0.395998
     8  H    0.004384  -0.000026  -0.032336   0.001330  -0.002472   0.391430
     9  C   -0.085002  -0.000683  -0.061295   0.003837  -0.000390   0.321522
    10  H    0.002645   0.000956   0.003254  -0.000161  -0.000013  -0.038507
    11  H    0.004382  -0.000026   0.002972  -0.000064   0.000166  -0.033433
    12  C    0.294181  -0.042357  -0.094706   0.006110  -0.001893  -0.061288
    13  H   -0.033377  -0.005372   0.006110  -0.000113  -0.000171   0.003835
    14  H   -0.047587   0.005678  -0.001892  -0.000171   0.003457  -0.000383
               7          8          9         10         11         12
     1  N    0.002642   0.004384  -0.085002   0.002645   0.004382   0.294181
     2  H    0.000960  -0.000026  -0.000683   0.000956  -0.000026  -0.042357
     3  C   -0.038354  -0.032336  -0.061295   0.003254   0.002972  -0.094706
     4  H   -0.004199   0.001330   0.003837  -0.000161  -0.000064   0.006110
     5  H    0.003832  -0.002472  -0.000390  -0.000013   0.000166  -0.001893
     6  C    0.395998   0.391430   0.321522  -0.038507  -0.033433  -0.061288
     7  H    0.542686  -0.025852  -0.038518  -0.006287   0.002601   0.003251
     8  H   -0.025852   0.527157  -0.033427   0.002598  -0.003627   0.002976
     9  C   -0.038518  -0.033427   5.205734   0.395996   0.391442   0.333669
    10  H   -0.006287   0.002598   0.395996   0.542649  -0.025855  -0.038339
    11  H    0.002601  -0.003627   0.391442  -0.025855   0.527162  -0.032342
    12  C    0.003251   0.002976   0.333669  -0.038339  -0.032342   4.977514
    13  H   -0.000161  -0.000064  -0.035515  -0.004199   0.001332   0.403837
    14  H   -0.000013   0.000165  -0.053925   0.003830  -0.002476   0.406045
              13         14
     1  N   -0.033377  -0.047587
     2  H   -0.005372   0.005678
     3  C    0.006110  -0.001892
     4  H   -0.000113  -0.000171
     5  H   -0.000171   0.003457
     6  C    0.003835  -0.000383
     7  H   -0.000161  -0.000013
     8  H   -0.000064   0.000165
     9  C   -0.035515  -0.053925
    10  H   -0.004199   0.003830
    11  H    0.001332  -0.002476
    12  C    0.403837   0.406045
    13  H    0.520786  -0.026321
    14  H   -0.026321   0.545229
 Mulliken charges:
               1
     1  N   -0.656565
     2  H    0.322869
     3  C   -0.156663
     4  H    0.169394
     5  H    0.168352
     6  C   -0.343412
     7  H    0.161414
     8  H    0.167763
     9  C   -0.343446
    10  H    0.161432
    11  H    0.167765
    12  C   -0.156658
    13  H    0.169392
    14  H    0.168363
 Sum of Mulliken charges =  -0.00000
 Mulliken charges with hydrogens summed into heavy atoms:
               1
     1  N   -0.333696
     3  C    0.181082
     6  C   -0.014235
     9  C   -0.014249
    12  C    0.181098
 APT charges:
               1
     1  N   -0.490573
     2  H    0.113071
     3  C    0.304490
     4  H   -0.027601
     5  H   -0.040744
     6  C    0.019509
     7  H   -0.037875
     8  H   -0.029011
     9  C    0.019476
    10  H   -0.037858
    11  H   -0.029020
    12  C    0.304492
    13  H   -0.027606
    14  H   -0.040750
 Sum of APT charges =   0.00000
 APT charges with hydrogens summed into heavy atoms:
               1
     1  N   -0.377502
     3  C    0.236145
     6  C   -0.047377
     9  C   -0.047402
    12  C    0.236136
 Electronic spatial extent (au):  <R**2>=            797.7768
 Charge=             -0.0000 electrons
 Dipole moment (field-independent basis, Debye):
    X=              1.4307    Y=             -0.5953    Z=             -0.1155  Tot=              1.5539
 Quadrupole moment (field-independent basis, Debye-Ang):
   XX=            -30.9334   YY=            -32.4273   ZZ=            -30.9322
   XY=              1.1661   XZ=              2.1606   YZ=             -0.7689
 Traceless Quadrupole moment (field-independent basis, Debye-Ang):
   XX=              0.4976   YY=             -0.9963   ZZ=              0.4987
   XY=              1.1661   XZ=              2.1606   YZ=             -0.7689
 Octapole moment (field-independent basis, Debye-Ang**2):
  XXX=           -165.9016  YYY=             11.5921  ZZZ=             -7.6260  XYY=            -54.2943
  XXY=              6.4608  XXZ=              0.8963  XZZ=            -50.6924  YZZ=              2.6166
  YYZ=             -3.3022  XYZ=              0.9799
 Hexadecapole moment (field-independent basis, Debye-Ang**3):
 XXXX=           -754.2130 YYYY=           -229.3809 ZZZZ=           -105.7956 XXXY=             25.0013
 XXXZ=             27.9921 YYYX=             22.7330 YYYZ=              4.3171 ZZZX=             22.1168
 ZZZY=              3.7652 XXYY=           -162.0492 XXZZ=           -135.6450 YYZZ=            -56.0211
 XXYZ=              3.1320 YYXZ=              7.4572 ZZXY=              6.8777
 N-N= 1.900096770448D+02 E-N=-8.720687292015D+02  KE= 2.108308843848D+02
  Exact polarizability:  43.717   1.668  47.711  -0.842  -0.681  44.963
 Approx polarizability:  37.790   1.158  39.322   1.307  -0.080  41.340
 SCFChk:  SCF convergence  8.24D-10 required  1.00D-08
 Use density number 2.
 Entering OneElI...
 Calculate overlap and kinetic energy integrals
    NBasis =  93  MinDer = 2  MaxDer = 2
 Requested accuracy = 0.1000D-12
 PrmmSu-InSpLW:  IPartL=    0 NPrtUS=    1 NPrtUL=    1 DoSpLW=F IThBeg=    0 IThEnd=    0 NThAct=    1.
 PrsmSu:  NPrtUS=   1 ThrOK=F IAlg=1 NPAlg=1 LenDen=           0 ISkipM=0 DoSpLW=F IThBeg=    0 IThEnd=    0.
 Prism:   IPart=     0 DynPar=F LinDyn=F Incr=           7.
 PRISM was handed   134109914 working-precision words and   741 shell-pairs
 IPart=  0 NShTot=         741 NBatch=          34 AvBLen=        21.8
 PrSmSu:  NxtVal=              8.
 Entering OneElI...
 Calculate potential energy integrals
    NBasis =  93  MinDer = 2  MaxDer = 2
 Requested accuracy = 0.1000D-12
 PrmmSu-InSpLW:  IPartL=    0 NPrtUS=    1 NPrtUL=    1 DoSpLW=F IThBeg=    0 IThEnd=    0 NThAct=    1.
 PrsmSu:  NPrtUS=   1 ThrOK=F IAlg=1 NPAlg=1 LenDen=           0 ISkipM=0 DoSpLW=F IThBeg=    0 IThEnd=    0.
 Prism:   IPart=     0 DynPar=F LinDyn=F Incr=         103.
 PRISM was handed   134125281 working-precision words and   736 shell-pairs
 IPart=  0 NShTot=       10304 NBatch=         736 AvBLen=        14.0
 PrSmSu:  NxtVal=            104.
 Polarizability after L701:
                1             2             3 
      1  0.437169D+02
      2  0.166788D+01  0.477113D+02
      3 -0.842476D+00 -0.680632D+00  0.449627D+02
 Dipole Derivatives after L701:
                 1             2             3             4             5 
      1  -0.536496D+00  0.765168D-01  0.196620D+00  0.131563D+00 -0.458678D-01
      2   0.125425D+00 -0.546283D+00 -0.509486D-01 -0.875145D-01  0.115460D+00
      3   0.370178D+00 -0.119241D+00 -0.388941D+00 -0.225820D+00  0.948671D-01
                 6             7             8             9            10 
      1  -0.778754D-01  0.314841D+00  0.654575D-02 -0.785662D-01  0.207438D-01
      2   0.366697D-01 -0.860245D-01  0.273598D+00 -0.115422D+00 -0.609169D-01
      3   0.921909D-01 -0.620022D-01 -0.271657D-01  0.325032D+00  0.268804D-03
                11            12            13            14            15 
      1  -0.389060D-01 -0.586543D-02 -0.544693D-01  0.212195D-01 -0.652163D-01
      2  -0.133269D+00 -0.650854D-01  0.443330D-01  0.323814D-01  0.560751D-01
      3  -0.308272D-01  0.297213D-01 -0.736866D-01 -0.413153D-02 -0.100143D+00
                16            17            18            19            20 
      1   0.442898D-02  0.834325D-01  0.564523D-01 -0.105885D+00 -0.395586D-01
      2   0.391809D-01 -0.314781D-01  0.455414D-01 -0.327850D-01 -0.270075D-04
      3   0.472790D-01 -0.217621D-01  0.855770D-01 -0.464072D-01 -0.324660D-02
                21            22            23            24            25 
      1  -0.976224D-01  0.125217D-01 -0.798889D-03  0.813610D-01 -0.549112D-01
      2  -0.241694D-01 -0.128262D-01  0.322429D-01  0.284914D-01  0.190806D-01
      3  -0.771371D-02  0.467680D-01  0.709419D-02 -0.131798D+00  0.755554D-01
                26            27            28            29            30 
      1  -0.273828D-01  0.584379D-01 -0.413582D-01  0.344596D-01 -0.772244D-01
      2   0.190618D-01 -0.428227D-01  0.481352D-01 -0.237549D-01  0.870850D-01
      3   0.212696D-01  0.942777D-01 -0.556995D-01  0.375460D-01 -0.484610D-01
                31            32            33            34            35 
      1   0.355250D-01  0.445341D-02  0.122161D-01  0.333772D+00 -0.366179D-01
      2   0.298263D-02 -0.625237D-01 -0.116640D+00  0.357747D-01  0.350915D+00
      3  -0.113852D-02 -0.763593D-01 -0.600615D-01 -0.538892D-01  0.587334D-01
                36            37            38            39            40 
      1   0.342843D-01  0.163678D-01 -0.465269D-01  0.696737D-01 -0.766429D-01
      2   0.118737D+00 -0.306691D-01 -0.474421D-01  0.973706D-01 -0.417528D-02
      3   0.228790D+00  0.415864D-01  0.717553D-01 -0.517446D-01 -0.629918D-01
                41            42 
      1   0.903147D-02 -0.106675D+00
      2   0.211176D-01 -0.548816D-01
      3  -0.853177D-02 -0.667254D-01
 Hessian after L701:
                1             2             3             4             5 
      1  0.120243D+02
      2 -0.109523D+01  0.849447D+01
      3  0.157351D+01 -0.179294D+00  0.967608D+01
      4 -0.336320D+01  0.749301D-01  0.975257D+00  0.310284D+01
      5  0.124067D+00 -0.384852D+01  0.252615D+00  0.126906D-01  0.383327D+01
      6  0.114977D+01  0.183976D+00 -0.161133D+01 -0.109708D+01 -0.292058D+00
      7 -0.394432D+01  0.162349D+01 -0.250878D+01  0.152621D+00  0.117476D-01
      8  0.174242D+01 -0.466668D+01 -0.198520D+01 -0.116699D-01  0.117255D+00
      9 -0.254877D+01 -0.191558D+01 -0.281105D+01  0.885059D-01  0.940779D-01
     10  0.592864D-01 -0.194316D-01  0.248713D-01  0.104567D-01 -0.122658D-01
     11 -0.114396D-02  0.480731D-01  0.708019D-01 -0.186458D-01 -0.174269D-01
     12  0.500167D-01  0.947989D-01  0.372395D-01  0.134020D-01  0.320902D-01
     13  0.127368D+00 -0.926399D-01  0.231832D+00 -0.216884D-01 -0.104065D-01
     14 -0.988561D-01  0.115118D+00  0.108023D+00 -0.779721D-02 -0.177123D-01
     15  0.214103D+00  0.336078D-01 -0.135048D+00  0.254915D-01 -0.309947D-01
     16  0.305655D+00 -0.129826D+00 -0.220948D-02 -0.152622D-01 -0.118516D-01
     17 -0.214697D+00  0.125813D+00  0.158469D+00 -0.905233D-02 -0.173649D-01
     18 -0.100151D+00  0.101509D+00 -0.932695D-01 -0.900166D-02  0.192147D-01
     19  0.141385D+00  0.575433D-02 -0.357426D-01  0.137287D-01 -0.308227D-02
     20  0.164020D-01 -0.446936D-01 -0.292315D-02 -0.504261D-03 -0.746358D-02
     21 -0.246569D-01 -0.140429D-02 -0.351598D-01 -0.142403D-01  0.853262D-03
     22  0.318253D-01 -0.760544D-02 -0.100564D+00 -0.190713D-02 -0.173161D-03
     23  0.111777D-02 -0.474046D-01  0.354327D-02  0.103412D-03 -0.149743D-02
     24 -0.118645D+00  0.108994D-01  0.997577D-01  0.102892D-02  0.853339D-03
     25  0.340868D+00 -0.177529D+00 -0.114437D+00 -0.141231D-01 -0.117096D-01
     26 -0.138028D+00 -0.268220D-01 -0.117517D+00 -0.654182D-02 -0.181098D-01
     27 -0.177564D+00  0.279029D-02  0.243678D-01 -0.851750D-02  0.224042D-01
     28  0.418471D-01 -0.925265D-01  0.392759D-02  0.650031D-03 -0.161431D-01
     29 -0.970384D-01  0.605768D-01 -0.182131D-02 -0.116619D-01  0.152022D-01
     30  0.146889D-01 -0.119365D-01 -0.408175D-01 -0.605590D-02  0.721667D-02
     31 -0.262507D-01 -0.447805D-01 -0.395875D-01 -0.175032D-02 -0.142426D-03
     32 -0.619415D-01  0.724475D-01  0.980413D-01  0.149953D-02  0.111810D-02
     33 -0.515341D-01  0.102502D+00  0.379173D-01  0.189363D-02  0.330584D-02
     34 -0.604300D+01 -0.146001D-01 -0.308287D-01  0.117452D+00 -0.100366D+00
     35 -0.148980D+00 -0.782345D-01  0.184898D+01 -0.366498D-01 -0.426218D-02
     36 -0.457774D-01  0.180098D+01 -0.530073D+01 -0.155063D-01 -0.153989D+00
     37  0.549556D-01 -0.261237D-01 -0.203897D-01  0.920679D-02 -0.251957D-01
     38 -0.348883D-01 -0.264362D-01 -0.280797D-01 -0.191465D-01 -0.434230D-01
     39 -0.117300D-01 -0.653757D-01  0.116117D+00 -0.722194D-02 -0.133849D-01
     40  0.249234D+00 -0.387557D-02  0.431394D-01  0.109729D-01  0.428307D-01
     41  0.679557D-02 -0.177708D+00 -0.225631D+00  0.324460D-01  0.893328D-02
     42  0.767312D-01 -0.157477D+00  0.359247D-01  0.520405D-01  0.577964D-01
                6             7             8             9            10 
      6  0.135079D+01
      7  0.974894D-02  0.118982D+02
      8  0.135122D+00  0.114650D-01  0.118057D+02
      9 -0.862839D-01  0.205311D+01  0.906147D+00  0.122521D+02
     10  0.119346D-01 -0.310075D+01  0.578616D+00  0.194573D+00  0.303696D+01
     11  0.310807D-01  0.589496D+00 -0.152301D+01  0.573617D+00 -0.676960D+00
     12 -0.164854D-01  0.178713D+00  0.521696D+00 -0.312931D+01 -0.142945D+00
     13  0.361198D-01 -0.265638D+01 -0.252009D+00  0.102347D+01  0.104171D-01
     14 -0.491494D-01 -0.345134D+00 -0.335120D+01 -0.440023D+00 -0.781526D-01
     15  0.129631D+00  0.107054D+01 -0.330992D+00 -0.203016D+01 -0.111943D+00
     16 -0.225416D-01 -0.238769D+01 -0.210661D+01 -0.832807D+00  0.656096D-01
     17  0.271866D-01 -0.202697D+01 -0.302658D+01  0.799922D+00  0.961952D-01
     18  0.336040D-01 -0.827733D+00  0.845525D+00 -0.434050D+01  0.267292D-01
     19 -0.300080D-01 -0.470988D-01  0.109289D+00  0.559910D-02 -0.189669D-01
     20 -0.173221D-02  0.944151D-01  0.586064D-01  0.179179D-01  0.309363D-01
     21  0.393194D-02  0.528633D-01  0.244710D-02  0.104901D+00  0.398837D-02
     22 -0.340149D-02 -0.332072D-01  0.477271D-01  0.762242D-01 -0.528414D-02
     23  0.918705D-04  0.345532D-01  0.511262D-01 -0.433907D-01 -0.958654D-02
     24  0.997844D-02  0.534206D-01 -0.407287D-01  0.590170D-01 -0.922335D-02
     25 -0.232694D-01  0.530207D-02 -0.669547D-01 -0.643307D-01 -0.376259D-01
     26  0.255619D-01 -0.141647D+00  0.107281D+00  0.894296D-01 -0.365338D-03
     27  0.332011D-01 -0.400703D-01  0.843824D-02 -0.728187D-01  0.181729D-02
     28 -0.153597D-01 -0.168174D-01 -0.496875D-01  0.203824D-01 -0.143143D-02
     29  0.196602D-01 -0.438420D-01  0.773534D-01 -0.382642D-01  0.237206D-02
     30 -0.567408D-02  0.201671D-01 -0.452740D-01 -0.204351D-01 -0.101326D-02
     31 -0.496121D-03 -0.365885D-01 -0.197021D-01 -0.418642D-02 -0.402453D-03
     32  0.674641D-02 -0.167919D-01  0.106148D+00  0.487969D-01  0.249689D-02
     33  0.720702D-02 -0.497113D-02  0.555911D-01 -0.134703D-01  0.102456D-02
     34 -0.798718D-01  0.140729D+00 -0.107473D+00  0.102544D-01 -0.203985D-01
     35 -0.138736D+00  0.846291D-01  0.126415D+00 -0.649954D-02  0.851026D-01
     36  0.703739D-01 -0.373339D-01  0.100072D-01  0.108824D+00 -0.378703D-03
     37 -0.458068D-02 -0.210126D-01  0.680682D-01 -0.330242D-01  0.213180D-03
     38 -0.128418D-01  0.726368D-01  0.115539D+00 -0.925359D-01 -0.249630D-03
     39  0.107523D-01 -0.421123D-01 -0.966582D-01  0.336794D-02 -0.208007D-02
     40  0.690260D-01  0.469934D-01  0.565123D-01  0.109879D-01  0.191810D-02
     41  0.650926D-01  0.519495D-01  0.206157D-02  0.638432D-02  0.129261D-02
     42  0.703101D-01  0.224336D-01  0.138826D-01 -0.241607D-01  0.264448D-02
               11            12            13            14            15 
     11  0.115685D+01
     12 -0.582729D+00  0.311761D+01
     13 -0.725239D-01 -0.108825D+00  0.263918D+01
     14  0.637439D-01 -0.959304D-01  0.357055D+00  0.302407D+01
     15 -0.919684D-01 -0.283989D-01 -0.122531D+01  0.533857D+00  0.189003D+01
     16  0.967502D-01  0.188694D-01 -0.120438D+00  0.204836D+00 -0.499760D-01
     17 -0.458451D-01 -0.207816D-01  0.131179D+00  0.674343D-01  0.150163D-01
     18 -0.452363D-01  0.730133D-01 -0.235555D-01  0.245106D-01  0.194929D+00
     19  0.287019D-01  0.133231D-02  0.752868D-01 -0.334237D-01  0.484067D-01
     20 -0.189965D-01 -0.244693D-02 -0.202823D-01 -0.117752D-01 -0.122463D-01
     21 -0.805352D-02  0.123019D-01  0.377231D-01 -0.133105D-01  0.233314D-04
     22 -0.165772D-01 -0.136348D-01 -0.171605D-01  0.147366D-01  0.111669D-01
     23  0.137927D-01  0.217220D-01  0.123336D-01 -0.977546D-03 -0.458386D-02
     24  0.364638D-01  0.181062D-01  0.107995D-02 -0.277448D-02  0.218183D-03
     25 -0.103996D-01  0.210941D-02  0.312618D-03 -0.213334D-01  0.114788D-01
     26  0.145671D+00  0.272523D-01 -0.250528D-01 -0.211642D-02 -0.129545D-01
     27  0.267318D-01 -0.339485D-01  0.104829D-01 -0.764467D-02 -0.104507D-01
     28 -0.405998D-02 -0.101892D-02  0.297358D-02 -0.350191D-02  0.450579D-02
     29  0.262730D-02  0.112805D-02 -0.447087D-02  0.251373D-02 -0.517816D-02
     30 -0.456508D-02 -0.177557D-02  0.435895D-02 -0.340063D-02  0.337237D-02
     31  0.473056D-03 -0.587879D-04 -0.823223D-03 -0.509904D-02  0.658188D-03
     32  0.418381D-02  0.199142D-02 -0.959834D-02  0.132704D-01 -0.572070D-02
     33  0.544975D-02  0.126460D-02 -0.394510D-02  0.384450D-02 -0.640621D-02
     34  0.777187D-01 -0.131215D-02 -0.232002D-01 -0.231258D-01  0.210470D-01
     35  0.167830D+00 -0.400287D-02 -0.309794D-01  0.423000D-01 -0.547251D-01
     36 -0.120607D-01 -0.495257D-01  0.207995D-01 -0.426127D-01  0.576168D-02
     37  0.923584D-03  0.959974D-03 -0.204800D-02  0.562618D-03 -0.123618D-02
     38  0.121315D-02  0.383156D-02 -0.318182D-02  0.110269D-02 -0.513230D-02
     39 -0.473810D-02 -0.917760D-03  0.330501D-02 -0.299131D-02  0.498938D-02
     40  0.624662D-02  0.239135D-02 -0.137950D-01  0.392332D-01 -0.189307D-01
     41  0.129345D-02  0.138098D-02  0.205763D-01  0.542268D-01 -0.279854D-01
     42  0.520632D-02  0.830176D-03 -0.754045D-02 -0.123984D-01 -0.184890D-01
               16            17            18            19            20 
     16  0.108310D+02
     17  0.504534D-01  0.105407D+02
     18  0.106449D+01 -0.203143D-02  0.124437D+02
     19 -0.181486D+01  0.404087D+00  0.867315D+00  0.140536D+01
     20  0.389461D+00 -0.316430D+01  0.229182D+00 -0.474572D+00  0.317091D+01
     21  0.776488D+00  0.211061D+00 -0.283770D+01 -0.800614D+00 -0.242058D+00
     22 -0.305837D+01  0.506758D-01 -0.529818D+00  0.775111D-01 -0.536865D-02
     23  0.412396D-01 -0.317416D+01 -0.184106D+00 -0.562868D-02  0.956321D-01
     24 -0.465613D+00 -0.179931D+00 -0.136027D+01 -0.993835D-01 -0.237706D-01
     25 -0.417455D+01  0.144279D+01 -0.327548D+00  0.594174D-01 -0.907443D-01
     26  0.151119D+01 -0.105769D+01 -0.105412D+01 -0.110277D+00 -0.498584D-01
     27 -0.322815D+00 -0.993140D+00 -0.428250D+01  0.198818D-01 -0.318474D-02
     28  0.119086D+00 -0.261372D-01  0.292472D-01  0.900828D-02 -0.295585D-01
     29 -0.349038D-01 -0.797824D-01  0.891193D-01 -0.337574D-01 -0.576671D-01
     30  0.383918D-01  0.464022D-01  0.707842D-01  0.635483D-02  0.195231D-01
     31  0.681583D-01 -0.177738D-01 -0.195798D-02  0.833505D-02  0.278394D-01
     32 -0.462581D-01 -0.107909D+00  0.128561D-01  0.428764D-01  0.355175D-01
     33 -0.269690D-02  0.288893D-01  0.118030D+00  0.246241D-01  0.285834D-01
     34  0.118676D+00  0.538007D-01 -0.108281D+00  0.809808D-01  0.591312D-01
     35 -0.368877D-01 -0.516304D-01  0.197616D-01  0.630634D-01 -0.643683D-02
     36 -0.140824D+00 -0.387809D-01 -0.273584D-01 -0.836176D-02 -0.714699D-02
     37  0.364693D-01  0.583359D-01 -0.630337D-01  0.113450D-02 -0.200195D-03
     38  0.671202D-01  0.130752D-01 -0.588162D-01  0.438027D-02  0.956908D-03
     39 -0.677658D-01 -0.575844D-01  0.245312D-01 -0.459450D-02 -0.144910D-02
     40  0.265404D-01  0.710512D-02  0.329414D-02  0.877961D-02  0.304575D-02
     41  0.528090D-02 -0.217879D-01  0.262852D-02  0.258868D-02 -0.424531D-03
     42  0.900583D-02  0.530182D-02 -0.169505D-01  0.519014D-02  0.175240D-02
               21            22            23            24            25 
     21  0.280662D+01
     22 -0.108367D+00  0.295668D+01
     23 -0.274750D-01 -0.336412D-01  0.312209D+01
     24 -0.135066D+00  0.687661D+00  0.216374D+00  0.113297D+01
     25  0.488236D-01  0.232634D-01 -0.619205D-01  0.283913D-01  0.110033D+02
     26  0.245684D-01 -0.835109D-01 -0.250972D-01  0.734188D-01  0.256556D+00
     27  0.100577D+00  0.520438D-01  0.798500D-01  0.800556D-01  0.107876D+01
     28  0.783951D-02 -0.155697D-01 -0.321665D-02  0.540116D-02 -0.260449D+01
     29  0.263069D-01  0.615384D-02  0.176620D-01 -0.481616D-01 -0.556249D+00
     30  0.149298D-01 -0.612621D-02 -0.391708D-01  0.430170D-01  0.755344D+00
     31  0.160069D-01  0.483504D-02 -0.158820D-01  0.285915D-02 -0.318694D+01
     32  0.275176D-01 -0.188496D-01 -0.326844D-01  0.741403D-02  0.694747D-01
     33  0.129861D-02  0.669261D-02  0.150226D-01  0.390442D-02  0.720568D-01
     34 -0.136112D-02  0.265079D-01  0.354006D-01 -0.716983D-01 -0.114797D+01
     35 -0.280517D-02  0.395176D-01 -0.181077D-01 -0.416686D-01 -0.773796D+00
     36 -0.344931D-01 -0.682028D-01 -0.365525D-01  0.477271D-01 -0.155417D+01
     37  0.197522D-02 -0.624156D-03 -0.468242D-03 -0.247042D-02 -0.578904D-01
     38  0.166263D-02  0.142515D-02  0.500451D-03 -0.452125D-02 -0.349070D-01
     39 -0.267424D-02 -0.186609D-02 -0.878531D-03  0.517109D-02  0.766859D-01
     40  0.353070D-02  0.115001D-01  0.559567D-02 -0.128088D-01 -0.208843D+00
     41  0.689658D-03  0.549024D-02 -0.881514D-03 -0.386728D-02  0.367191D-01
     42  0.505628D-03 -0.180819D-02 -0.446717D-03 -0.459038D-02  0.101037D-01
               26            27            28            29            30 
     26  0.104758D+02
     27  0.198513D+00  0.123345D+02
     28 -0.530838D+00  0.806777D+00  0.246140D+01
     29 -0.283516D+01 -0.684223D+00  0.757371D+00  0.260316D+01
     30 -0.610178D+00 -0.237686D+01 -0.835495D+00  0.708366D+00  0.231806D+01
     31  0.327089D-01  0.391484D-01  0.611431D-01 -0.249797D-01 -0.100448D+00
     32 -0.232201D+01  0.100699D+01 -0.213204D-01  0.110905D+00 -0.252752D-01
     33  0.964578D+00 -0.208435D+01 -0.973517D-01 -0.337294D-01 -0.133963D+00
     34 -0.849004D+00 -0.154373D+01 -0.908938D-01  0.695359D-01  0.477163D-01
     35 -0.465869D+01  0.329814D+00  0.322744D-01  0.830357D-01 -0.356952D-01
     36  0.381499D+00 -0.394640D+01  0.153129D-01 -0.198425D-01  0.124191D+00
     37 -0.264473D-01  0.969089D-01 -0.445350D-01  0.367554D-02  0.191442D-01
     38  0.105983D+00  0.259515D-02  0.340704D-02  0.125615D-01  0.197596D-02
     39 -0.108296D-01  0.446792D-01  0.128999D-01 -0.123065D-03  0.630598D-02
     40  0.111255D+00 -0.131281D-01  0.776243D-01 -0.322055D-01  0.429716D-01
     41  0.160799D+00  0.100616D-01 -0.160630D-01 -0.129864D-01 -0.798857D-02
     42  0.207764D-01  0.189954D+00  0.429319D-01 -0.132378D-01 -0.113267D-02
               31            32            33            34            35 
     31  0.313300D+01
     32 -0.131535D-01  0.209314D+01
     33  0.268937D-01 -0.115627D+01  0.198605D+01
     34 -0.817699D-02  0.704749D-01  0.527352D-01  0.122059D+02
     35  0.698545D-01  0.371855D-01 -0.130384D-01  0.938545D-01  0.102368D+02
     36  0.746014D-01 -0.279766D-01  0.479615D-01  0.106236D+01 -0.111176D+01
     37  0.596849D-02 -0.742555D-02 -0.282267D-01 -0.309384D+01  0.413272D+00
     38 -0.704528D-03 -0.132556D-01 -0.267073D-02  0.405857D+00 -0.245547D+01
     39 -0.247505D-01  0.124443D-01  0.339334D-01 -0.447778D+00 -0.940488D+00
     40 -0.205074D-01  0.851650D-02  0.280500D-02 -0.226276D+01  0.145724D+00
     41  0.113417D-01  0.194201D-02 -0.205540D-02  0.228795D+00 -0.342075D+01
     42  0.113175D-01 -0.755668D-02  0.619015D-03  0.109075D+01  0.150864D+00
               36            37            38            39            40 
     36  0.135118D+02
     37 -0.476005D+00  0.301742D+01
     38 -0.987555D+00 -0.495423D+00  0.220693D+01
     39 -0.220390D+01  0.583425D+00  0.109877D+01  0.208718D+01
     40  0.117349D+01  0.945837D-01  0.336744D-01 -0.664168D-01  0.197776D+01
     41  0.245785D+00  0.364457D-01  0.807213D-01  0.832886D-01 -0.423659D+00
     42 -0.235419D+01 -0.734466D-01  0.833199D-01 -0.129539D+00 -0.124035D+01
               41            42 
     41  0.332456D+01
     42 -0.147783D+00  0.225091D+01
 ICntrl=  10100127.
 Calling FoFJK, ICntrl=  10100127 FMM=F ISym2X=0 I1Cent= 0 IOpClX= 0 NMat=1 NMatS=1 NMatT=0.
 FoFJK:  IHMeth= 1 ICntrl=10100127 DoSepK=F KAlg= 0 I1Cent=           0 FoldK=F
 IRaf=         0 NMat=       1 IRICut=       1 DoRegI=T DoRafI=F ISym2E= 0 IDoP0=0 IntGTp=1.
 FoFCou: FMM=F IPFlag=           0 FMFlag=      100000 FMFlg1=         800
         NFxFlg=           0 DoJE=F BraDBF=F KetDBF=F FulRan=T
         wScrn=  0.000000 ICntrl=  10100127 IOpCl=  0 I1Cent=           0 NGrid=           0
         NMat0=    1 NMatS0=      1 NMatT0=    0 NMatD0=    1 NMtDS0=    0 NMtDT0=    0
 Symmetry not used in FoFCou.
 FoFCou:  KetSym=F NOpSet=  1 NOpAb=1 NOp=  1.
 FoFCou:  CnvScl= 1.00D+00 Thresh= 1.00D-12 IAcrcy=      10.
 PrismS was handed   134133122 working-precision words and   741 shell-pairs
 FoFCou: LinMIO=F DoNuc=F BraDBF=F KetDBF=F HaveP=T PDBF=F HaveZ=T HaveW=F
         NIJTC =       6 NIJTAt=       0 NIJTCD=       0 NIJTT =       6
         IJTBeg=       1 IJTEnd=       6 KLTBeg=       1 KLTEnd=       6
         IPTBeg=       1 IPTEnd=       6 IPTBCv=       1 IPTECv=       6
         IZTBeg=       1 IZTEnd=       6 IZTBCv=       1 IZTECv=       6
         IWTBeg=       7 IWTEnd=       6 IWTBCv=       7 IWTECv=       6
         INTBeg=       1 INTEnd=       0 IFTBCv=       1 IFTECv=       6
 NCel replicated for PrismC:     1
 CoulSu-InSpLW:  IPartL=    0 NPrtUS=    1 NPrtUL=    1 DoSpLW=F IThBeg=    0 IThEnd=    0 NThAct=    1.
 CoulSu:  IncDef=  1024 NBBP=         274911 NTPThr=   100 NPartT=    1 Incr=        1024 LDynOK=F GPUOK=T.
 CoulSu:  NPrtUS=   1 ThrOK=F IAlg=1 NPAlg=1 LenDen=           0 LWGrdD=           0 DoCopy=F ISkipM=0
          DoSpLW=F IThBeg=    0 IThEnd=    0.
 Enter PrismC:  IPart=  0 JobTyp=22 DoJE=F Cont=F.
 PrismC:  IPart=     0 DynPar=F LinDyn=F Incr=        1024 UseFst=F UseS4=T ISplat=2.
 PrismC was handed   134132263 working-precision words and   741 shell-pairs
 IPart=  0 NShTot=      265478 NShNF=      265478 NShFF=           0 MinMC=       7
           NShCPU=      265478 NBCPU=        6675 AvBCPU=        39.8
           NShGPU=           0 NBGPU=           0 AvBGPU=         0.0
 CoulSu:  NxtVal=           1025 LenVP=      134132264 MinMC=       7.
 Polarizability after L703:
                1             2             3 
      1  0.437169D+02
      2  0.166788D+01  0.477113D+02
      3 -0.842476D+00 -0.680632D+00  0.449627D+02
 Dipole Derivatives after L703:
                 1             2             3             4             5 
      1  -0.536496D+00  0.765168D-01  0.196620D+00  0.131563D+00 -0.458678D-01
      2   0.125425D+00 -0.546283D+00 -0.509486D-01 -0.875145D-01  0.115460D+00
      3   0.370178D+00 -0.119241D+00 -0.388941D+00 -0.225820D+00  0.948671D-01
                 6             7             8             9            10 
      1  -0.778754D-01  0.314841D+00  0.654575D-02 -0.785662D-01  0.207438D-01
      2   0.366697D-01 -0.860245D-01  0.273598D+00 -0.115422D+00 -0.609169D-01
      3   0.921909D-01 -0.620022D-01 -0.271657D-01  0.325032D+00  0.268804D-03
                11            12            13            14            15 
      1  -0.389060D-01 -0.586543D-02 -0.544693D-01  0.212195D-01 -0.652163D-01
      2  -0.133269D+00 -0.650854D-01  0.443330D-01  0.323814D-01  0.560751D-01
      3  -0.308272D-01  0.297213D-01 -0.736866D-01 -0.413153D-02 -0.100143D+00
                16            17            18            19            20 
      1   0.442898D-02  0.834325D-01  0.564523D-01 -0.105885D+00 -0.395586D-01
      2   0.391809D-01 -0.314781D-01  0.455414D-01 -0.327850D-01 -0.270075D-04
      3   0.472790D-01 -0.217621D-01  0.855770D-01 -0.464072D-01 -0.324660D-02
                21            22            23            24            25 
      1  -0.976224D-01  0.125217D-01 -0.798889D-03  0.813610D-01 -0.549112D-01
      2  -0.241694D-01 -0.128262D-01  0.322429D-01  0.284914D-01  0.190806D-01
      3  -0.771371D-02  0.467680D-01  0.709419D-02 -0.131798D+00  0.755554D-01
                26            27            28            29            30 
      1  -0.273828D-01  0.584379D-01 -0.413582D-01  0.344596D-01 -0.772244D-01
      2   0.190618D-01 -0.428227D-01  0.481352D-01 -0.237549D-01  0.870850D-01
      3   0.212696D-01  0.942777D-01 -0.556995D-01  0.375460D-01 -0.484610D-01
                31            32            33            34            35 
      1   0.355250D-01  0.445341D-02  0.122161D-01  0.333772D+00 -0.366179D-01
      2   0.298263D-02 -0.625237D-01 -0.116640D+00  0.357747D-01  0.350915D+00
      3  -0.113852D-02 -0.763593D-01 -0.600615D-01 -0.538892D-01  0.587334D-01
                36            37            38            39            40 
      1   0.342843D-01  0.163678D-01 -0.465269D-01  0.696737D-01 -0.766429D-01
      2   0.118737D+00 -0.306691D-01 -0.474421D-01  0.973706D-01 -0.417528D-02
      3   0.228790D+00  0.415864D-01  0.717553D-01 -0.517446D-01 -0.629918D-01
                41            42 
      1   0.903147D-02 -0.106675D+00
      2   0.211176D-01 -0.548816D-01
      3  -0.853177D-02 -0.667254D-01
 Hessian after L703:
                1             2             3             4             5 
      1  0.332211D+00
      2  0.700364D-01  0.418684D+00
      3  0.959257D-01  0.167135D-01  0.634901D+00
      4 -0.133707D+00 -0.255670D-01 -0.199587D+00  0.133185D+00
      5 -0.115646D-01 -0.493089D-01  0.701958D-02  0.233597D-01  0.645176D-01
      6 -0.149859D+00 -0.125424D-01 -0.309724D+00  0.169606D+00  0.904404D-02
      7 -0.108471D+00 -0.645858D-01  0.539745D-01  0.421458D-02  0.135195D-01
      8 -0.191981D-01 -0.101534D+00  0.268168D-01 -0.836687D-03 -0.694542D-03
      9  0.190247D-01  0.453142D-01 -0.164348D+00  0.268174D-01  0.197819D-01
     10 -0.710688D-02 -0.179805D-01 -0.702879D-02  0.101960D-02  0.559550D-03
     11 -0.443916D-02 -0.118090D-01 -0.487076D-02  0.824332D-03 -0.131993D-03
     12  0.106548D-01  0.268301D-01  0.847631D-02 -0.552213D-03 -0.657746D-05
     13  0.130376D-01 -0.404686D-02  0.221299D-01 -0.282906D-03 -0.360598D-02
     14  0.599368D-02 -0.143318D-02  0.154470D-01 -0.698078D-03 -0.180093D-02
     15 -0.823392D-02  0.469455D-02 -0.291313D-01  0.190090D-02  0.502319D-02
     16 -0.219173D-01 -0.430268D-03  0.214774D-01  0.500222D-03  0.307469D-04
     17 -0.285933D-03  0.644460D-03 -0.463232D-02 -0.972237D-03  0.105577D-03
     18  0.365883D-01 -0.340168D-02 -0.167823D-01  0.108404D-02 -0.713949D-03
     19  0.783805D-03 -0.530299D-03  0.111104D-02 -0.447126D-03 -0.249615D-03
     20 -0.776432D-03  0.526253D-03 -0.282855D-03 -0.201025D-03  0.416019D-03
     21 -0.748264D-03 -0.624490D-03  0.537323D-03  0.879102D-05 -0.182967D-03
     22 -0.593315D-02  0.556530D-03  0.282160D-02 -0.316870D-03  0.611446D-04
     23  0.420401D-02 -0.221807D-02 -0.169010D-02  0.114857D-03 -0.185434D-03
     24  0.258032D-02 -0.134513D-03  0.133637D-03 -0.307614D-03  0.408414D-05
     25 -0.350341D-02  0.143185D-01  0.116200D-01  0.106474D-02 -0.483498D-03
     26  0.208493D-01 -0.270347D-01 -0.113355D-01  0.936899D-03 -0.156484D-04
     27  0.202754D-01 -0.219037D-01 -0.749376D-02  0.848945D-03  0.909252D-04
     28  0.144323D-02  0.432931D-03  0.751819D-03  0.243012D-03  0.653992D-03
     29 -0.146770D-03  0.264424D-03 -0.440144D-03  0.351386D-03 -0.339329D-03
     30 -0.297509D-03  0.104131D-02  0.128855D-03 -0.168217D-03 -0.270678D-04
     31 -0.556222D-02  0.458650D-02  0.243153D-02 -0.382712D-03  0.122049D-03
     32  0.102644D-02 -0.241078D-02  0.258649D-03 -0.369994D-04  0.843585D-05
     33  0.295221D-02 -0.140589D-02 -0.429530D-04 -0.449075D-04  0.506641D-03
     34 -0.658733D-01  0.238085D-01 -0.598230D-02 -0.593547D-02 -0.225863D-01
     35 -0.350071D-01 -0.192247D+00 -0.367558D-01  0.688305D-02 -0.726352D-02
     36 -0.187546D-01 -0.364770D-01 -0.116214D+00  0.980060D-03 -0.385241D-01
     37  0.167039D-03  0.773494D-03 -0.117243D-02 -0.180324D-03 -0.311765D-03
     38 -0.863691D-02 -0.218224D-01  0.262580D-01 -0.644119D-03  0.167974D-02
     39 -0.422681D-02 -0.112013D-01  0.112149D-01  0.294987D-03  0.584280D-03
     40  0.443186D-02 -0.137220D-02  0.152733D-02  0.102569D-02  0.494971D-03
     41 -0.220549D-01 -0.103016D-01 -0.325061D-01 -0.351410D-02 -0.698704D-02
     42 -0.588133D-02 -0.690272D-02 -0.116567D-01 -0.880549D-03 -0.259993D-02
                6             7             8             9            10 
      6  0.340220D+00
      7 -0.178112D-01  0.494827D+00
      8  0.789819D-03  0.463592D-01  0.631382D+00
      9 -0.253549D-01  0.108054D+00  0.163311D-01  0.562069D+00
     10 -0.442395D-03 -0.805085D-01 -0.789578D-01 -0.315943D-01  0.870549D-01
     11 -0.291911D-03 -0.804828D-01 -0.264806D+00 -0.814805D-01  0.882543D-01
     12  0.189302D-02 -0.361290D-01 -0.891034D-01 -0.881672D-01  0.326644D-01
     13  0.425176D-02 -0.152952D+00  0.235624D-01 -0.135307D+00 -0.599520D-02
     14  0.278728D-02  0.224337D-01 -0.633882D-01  0.280992D-01 -0.182709D-01
     15 -0.227010D-02 -0.129750D+00  0.288554D-01 -0.207996D+00 -0.629152D-02
     16 -0.139524D-05 -0.134832D+00  0.481706D-01  0.315669D-02  0.894685D-02
     17 -0.429515D-03  0.443808D-01 -0.116187D+00 -0.146315D-01  0.226329D-01
     18  0.512695D-03  0.539245D-02 -0.111337D-01 -0.839936D-01  0.678481D-02
     19  0.575503D-03 -0.183052D-01 -0.360818D-02 -0.155055D-01  0.160805D-02
     20 -0.194949D-03  0.212847D-01  0.204814D-02  0.153603D-01 -0.462699D-03
     21 -0.368148D-03  0.838039D-02  0.178666D-02  0.484715D-02 -0.120355D-03
     22  0.279579D-04 -0.334065D-02 -0.357709D-02  0.226243D-01 -0.575646D-03
     23  0.234203D-03  0.299428D-02  0.325789D-02 -0.211503D-01  0.565855D-03
     24  0.601021D-03 -0.195853D-02  0.186426D-02 -0.427034D-02  0.721831D-03
     25  0.452722D-03  0.131447D-01  0.118457D-01 -0.783631D-02 -0.273168D-02
     26  0.387521D-03  0.777809D-02 -0.341143D-01 -0.765194D-02  0.319499D-02
     27  0.635448D-04 -0.252501D-02 -0.384810D-03  0.687955D-03  0.154461D-02
     28  0.166865D-03 -0.192638D-02 -0.686211D-03  0.206210D-02  0.235026D-03
     29 -0.368803D-03 -0.226455D-02 -0.279164D-02  0.125805D-02  0.731178D-03
     30 -0.303295D-03  0.953908D-03  0.119190D-03 -0.613116D-03 -0.195095D-03
     31 -0.794580D-05 -0.171038D-02 -0.132784D-02  0.166225D-02  0.378225D-03
     32  0.130528D-03 -0.450191D-03 -0.242861D-02 -0.982637D-03  0.797951D-03
     33  0.472207D-03  0.804572D-03  0.184967D-02 -0.966564D-03 -0.310612D-03
     34 -0.806104D-02 -0.856699D-02 -0.219465D-01  0.608092D-02 -0.287925D-02
     35  0.157821D-02 -0.107447D-01 -0.452653D-01  0.588045D-02 -0.168066D-03
     36 -0.863336D-02  0.999036D-02  0.238331D-01  0.811586D-02  0.446241D-02
     37  0.423925D-03 -0.162338D-02  0.205640D-03  0.111015D-02  0.399371D-03
     38  0.776771D-03  0.738657D-04 -0.674184D-02 -0.392589D-02 -0.127638D-02
     39  0.128325D-02  0.734609D-04 -0.265288D-02 -0.221633D-03 -0.352635D-03
     40  0.678727D-03  0.509812D-04 -0.516202D-05 -0.349883D-03  0.155155D-03
     41 -0.190084D-02 -0.296213D-03  0.126275D-02 -0.220239D-02  0.379667D-03
     42  0.160778D-02  0.549387D-03  0.102876D-02  0.211657D-03  0.157581D-03
               11            12            13            14            15 
     11  0.287494D+00
     12  0.870705D-01  0.891396D-01
     13  0.259641D-02 -0.835784D-02  0.165447D+00
     14  0.629930D-02 -0.245446D-01 -0.269133D-01  0.623080D-01
     15  0.207693D-02 -0.741698D-02  0.132865D+00 -0.365321D-01  0.236572D+00
     16 -0.683220D-02 -0.364271D-02 -0.176669D-01  0.153638D-01  0.791942D-02
     17 -0.121639D-01 -0.493537D-02  0.357498D-02 -0.216207D-02 -0.271802D-02
     18 -0.539379D-02 -0.925736D-03 -0.171992D-01  0.146251D-01  0.738312D-02
     19 -0.295993D-03  0.923408D-04 -0.261445D-02  0.271372D-02  0.190969D-02
     20  0.120340D-02  0.448144D-03  0.447346D-02 -0.229487D-02 -0.159378D-02
     21  0.555773D-03  0.845610D-03  0.133416D-02 -0.474914D-03  0.771745D-03
     22  0.743649D-03  0.376720D-03  0.972527D-03 -0.661560D-03 -0.731059D-04
     23 -0.991093D-03 -0.359702D-03 -0.665193D-03  0.142884D-02  0.289829D-03
     24 -0.798277D-04 -0.135656D-03  0.344391D-05  0.194207D-03  0.133730D-02
     25  0.700398D-03  0.192301D-02 -0.114291D-02  0.338992D-03  0.325227D-03
     26 -0.153237D-02  0.480857D-03 -0.503184D-03  0.545124D-03  0.457478D-03
     27 -0.138072D-03 -0.852516D-03  0.193259D-03 -0.483581D-03 -0.202939D-03
     28 -0.328053D-04 -0.148970D-03  0.243429D-03 -0.200867D-03 -0.691546D-04
     29 -0.520286D-03 -0.220044D-03  0.105016D-03  0.161052D-04 -0.537222D-04
     30  0.565219D-04  0.624287D-04  0.431519D-04 -0.863499D-04 -0.338028D-04
     31 -0.133025D-04 -0.246311D-03  0.728273D-04 -0.368701D-04 -0.197889D-03
     32 -0.516551D-03 -0.163318D-03  0.248009D-03 -0.163081D-03  0.563064D-04
     33  0.116185D-03  0.134116D-03 -0.187830D-03  0.479494D-04  0.595017D-04
     34 -0.752954D-03  0.294513D-02  0.854415D-03  0.802142D-03 -0.832099D-03
     35 -0.167369D-02  0.263231D-02  0.718607D-03  0.706645D-03 -0.154203D-02
     36  0.289921D-02 -0.403244D-02  0.801267D-03  0.139949D-02 -0.338491D-04
     37 -0.211548D-03  0.106681D-03  0.296557D-04 -0.174863D-03  0.422271D-03
     38 -0.931882D-03  0.159990D-02  0.195105D-03  0.123488D-03  0.722694D-04
     39 -0.329331D-03  0.680758D-03  0.248189D-04 -0.294788D-03  0.380674D-03
     40 -0.582821D-04  0.313939D-03 -0.297920D-05 -0.689481D-03  0.104885D-03
     41  0.796190D-04  0.271263D-03  0.260621D-03 -0.185127D-03  0.913767D-03
     42 -0.190898D-03  0.298727D-03 -0.594822D-03 -0.183753D-03  0.580424D-03
               16            17            18            19            20 
     16  0.572278D+00
     17  0.438097D-01  0.416100D+00
     18  0.132716D-01 -0.257215D-02  0.631303D+00
     19 -0.238409D+00 -0.486689D-01 -0.118390D+00  0.254943D+00
     20 -0.480746D-01 -0.568765D-01 -0.319578D-01  0.501811D-01  0.695321D-01
     21 -0.118153D+00 -0.311571D-01 -0.130993D+00  0.128261D+00  0.310852D-01
     22 -0.638685D-01 -0.464706D-02  0.560036D-01  0.776148D-02  0.149616D-02
     23 -0.469622D-02 -0.479825D-01  0.146548D-01  0.195974D-02  0.364673D-03
     24  0.575734D-01  0.154855D-01 -0.315520D+00  0.490212D-02  0.840141D-03
     25 -0.895126D-01 -0.259477D-01  0.246463D-02 -0.559221D-02 -0.249463D-01
     26 -0.403077D-01 -0.157236D+00  0.235637D-01 -0.660688D-03 -0.931143D-02
     27  0.676661D-02  0.242637D-01 -0.854726D-01 -0.498381D-02 -0.143326D-01
     28  0.709187D-02 -0.953802D-02  0.104979D-01  0.154119D-02  0.691200D-04
     29  0.145408D-01 -0.134079D-01  0.198279D-01  0.242679D-03  0.159317D-02
     30 -0.391161D-02  0.166454D-02 -0.480833D-02  0.153576D-03 -0.551237D-03
     31 -0.240137D-02 -0.777094D-02 -0.932703D-02 -0.454043D-03 -0.260211D-02
     32 -0.174233D-02 -0.142933D-01 -0.208914D-01 -0.510989D-03 -0.322401D-02
     33  0.978373D-03  0.937058D-02  0.875053D-02  0.665524D-03  0.136260D-02
     34 -0.163172D-01 -0.175252D-01  0.107937D-01 -0.577288D-03  0.454853D-03
     35 -0.221820D-01  0.540883D-02  0.423780D-02 -0.621328D-03 -0.441456D-02
     36  0.139647D-01  0.123339D-01 -0.937103D-02  0.116628D-02 -0.508167D-03
     37 -0.361359D-02 -0.278821D-03  0.214625D-02 -0.438236D-03 -0.706486D-03
     38  0.195553D-02 -0.144163D-02 -0.112651D-02  0.283432D-04  0.329969D-03
     39  0.844113D-03 -0.138192D-02 -0.603393D-04  0.121158D-03  0.270276D-03
     40 -0.278120D-03  0.123651D-02 -0.110822D-03  0.199914D-03 -0.189766D-03
     41  0.394213D-03 -0.507275D-03  0.281716D-03  0.204209D-04  0.107678D-03
     42 -0.243253D-03 -0.660380D-03 -0.212084D-04 -0.786104D-04  0.547236D-04
               21            22            23            24            25 
     21  0.135546D+00
     22 -0.296342D-01  0.679480D-01
     23 -0.731627D-02  0.445474D-02  0.536207D-01
     24 -0.167954D-01 -0.632641D-01 -0.164117D-01  0.336536D+00
     25  0.862884D-02 -0.214534D-02 -0.516802D-02 -0.108336D-02  0.472985D+00
     26  0.416172D-02  0.844217D-03 -0.273867D-02 -0.155236D-02 -0.555079D-01
     27  0.377270D-02  0.906580D-02  0.287620D-01 -0.305606D-02  0.749767D-01
     28  0.560184D-03 -0.115041D-03 -0.213157D-02  0.822438D-03 -0.139557D+00
     29  0.358681D-03 -0.206479D-03 -0.345477D-02  0.666603D-03  0.691183D-01
     30  0.184088D-02  0.327270D-03  0.169062D-02  0.416010D-03 -0.113081D+00
     31  0.583593D-03  0.113955D-02  0.398581D-03  0.641189D-05 -0.492382D-01
     32  0.563845D-03  0.271583D-03  0.179098D-02 -0.185844D-03 -0.695582D-02
     33  0.520753D-03  0.700516D-04 -0.114728D-03  0.148455D-02 -0.131709D-01
     34  0.484880D-03 -0.900403D-03 -0.899254D-03 -0.207373D-03 -0.165667D+00
     35  0.133585D-02  0.766328D-03 -0.350700D-02 -0.739459D-03  0.131271D-01
     36 -0.328715D-03  0.173462D-02  0.995954D-03 -0.708045D-03  0.233794D-01
     37  0.263533D-03 -0.438158D-03 -0.845179D-03  0.207063D-03 -0.588791D-02
     38 -0.439065D-04 -0.576632D-04  0.469087D-03 -0.186490D-04  0.322757D-02
     39 -0.114659D-03  0.562141D-04  0.296347D-03 -0.349281D-04 -0.188036D-03
     40  0.150863D-03 -0.187750D-03 -0.286626D-03  0.396771D-05 -0.222160D-01
     41 -0.480622D-04 -0.445040D-04  0.145335D-03  0.675714D-04  0.633277D-02
     42 -0.822326D-04 -0.136719D-03  0.119080D-03  0.122255D-04  0.115891D-01
               26            27            28            29            30 
     26  0.552769D+00
     27  0.445817D-01  0.593869D+00
     28  0.696721D-01 -0.112988D+00  0.155190D+00
     29 -0.978520D-01  0.778146D-01 -0.695666D-01  0.106303D+00
     30  0.769597D-01 -0.188876D+00  0.119764D+00 -0.863554D-01  0.198531D+00
     31 -0.756484D-02 -0.135899D-01 -0.280748D-03 -0.134829D-01 -0.164705D-01
     32 -0.155218D+00 -0.133751D+00  0.403611D-03  0.102031D-01  0.127038D-01
     33 -0.135363D+00 -0.222915D+00 -0.217372D-04 -0.155129D-01 -0.185918D-01
     34  0.168414D-01  0.208286D-01 -0.206393D-01  0.990313D-03  0.106333D-01
     35 -0.756256D-01 -0.311020D-02  0.936827D-02 -0.143230D-02 -0.605494D-02
     36  0.254855D-03 -0.936730D-01 -0.241898D-01  0.348390D-02  0.106731D-01
     37 -0.176037D-01  0.200219D-01  0.166257D-02 -0.390669D-03 -0.473110D-03
     38  0.701746D-02 -0.594755D-02 -0.419435D-03  0.718578D-03 -0.154125D-03
     39  0.564708D-02 -0.527400D-02 -0.196794D-03 -0.238265D-03  0.127788D-02
     40  0.203104D-02 -0.204348D-01 -0.513192D-02 -0.217489D-04  0.272170D-02
     41  0.347196D-03  0.453841D-02  0.197547D-02  0.699624D-03 -0.100658D-02
     42 -0.592039D-03  0.942198D-02  0.298926D-02 -0.220519D-03  0.295860D-03
               31            32            33            34            35 
     31  0.532850D-01
     32  0.835617D-02  0.167760D+00
     33  0.117319D-01  0.144452D+00  0.237066D+00
     34  0.457659D-02 -0.175617D-02 -0.395305D-02  0.533526D+00
     35  0.193000D-01 -0.177176D-02 -0.518087D-02  0.748220D-01  0.525991D+00
     36  0.229964D-01 -0.243816D-02 -0.716705D-02  0.476710D-01 -0.872210D-01
     37 -0.116076D-02  0.176982D-03  0.798340D-03 -0.690546D-01 -0.425419D-01
     38 -0.825674D-04 -0.321072D-03 -0.358075D-03 -0.419161D-01 -0.148184D+00
     39  0.843894D-03  0.409915D-04 -0.223769D-03  0.521138D-01  0.130109D+00
     40  0.173826D-02  0.171740D-03 -0.311877D-03 -0.182546D+00 -0.137202D-01
     41  0.118046D-03  0.583794D-03  0.229862D-03 -0.103368D-01 -0.507223D-01
     42 -0.416354D-03  0.206332D-03  0.141950D-02 -0.132515D+00 -0.516924D-02
               36            37            38            39            40 
     36  0.628687D+00
     37  0.507662D-01  0.730980D-01
     38  0.121232D+00  0.466660D-01  0.166233D+00
     39 -0.216244D+00 -0.567269D-01 -0.135917D+00  0.224361D+00
     40 -0.134968D+00  0.704032D-02  0.886731D-03  0.731872D-02  0.195721D+00
     41 -0.126409D-02  0.152428D-01  0.287078D-02  0.150679D-01  0.115225D-01
     42 -0.191070D+00 -0.178940D-01 -0.244701D-02 -0.170244D-01  0.143356D+00
               41            42 
     41  0.626066D-01
     42  0.175576D-01  0.206007D+00
 FrcOut:
 IF    =       787 IFX   =       867 IFXYZ =       909
 IFFX  =       951 IFFFX =      1854 IFLen =        80
 IFFLen=       903 IFFFLn=         0 IEDerv=      1854
 LEDerv=      2069 IFroze=      4433 ICStrt=     22080
 Dipole        = 5.31232648D-01-2.13988030D-01-1.78431944D-02
 DipoleDeriv   =-5.36496024D-01 1.25424510D-01 3.70177854D-01
                 7.65167520D-02-5.46282545D-01-1.19241304D-01
                 1.96619879D-01-5.09485606D-02-3.88940521D-01
                 1.31563064D-01-8.75144788D-02-2.25820315D-01
                -4.58678010D-02 1.15460434D-01 9.48670832D-02
                -7.78753565D-02 3.66696752D-02 9.21908876D-02
                 3.14840610D-01-8.60244902D-02-6.20022073D-02
                 6.54575177D-03 2.73598062D-01-2.71657364D-02
                -7.85662497D-02-1.15422218D-01 3.25032034D-01
                 2.07438069D-02-6.09169398D-02 2.68803767D-04
                -3.89060254D-02-1.33268613D-01-3.08271763D-02
                -5.86542835D-03-6.50854459D-02 2.97212901D-02
                -5.44693032D-02 4.43329658D-02-7.36866224D-02
                 2.12194657D-02 3.23813694D-02-4.13152805D-03
                -6.52162946D-02 5.60750842D-02-1.00143200D-01
                 4.42897563D-03 3.91809351D-02 4.72789894D-02
                 8.34324752D-02-3.14780868D-02-2.17621426D-02
                 5.64523350D-02 4.55413959D-02 8.55770416D-02
                -1.05885316D-01-3.27850148D-02-4.64072082D-02
                -3.95586399D-02-2.70074768D-05-3.24659677D-03
                -9.76223860D-02-2.41694037D-02-7.71370984D-03
                 1.25216737D-02-1.28261798D-02 4.67679637D-02
                -7.98888697D-04 3.22428718D-02 7.09418877D-03
                 8.13610045D-02 2.84914146D-02-1.31798480D-01
                -5.49111733D-02 1.90805789D-02 7.55554187D-02
                -2.73827512D-02 1.90617625D-02 2.12696219D-02
                 5.84378666D-02-4.28227416D-02 9.42776922D-02
                -4.13582416D-02 4.81351543D-02-5.56995233D-02
                 3.44595759D-02-2.37548579D-02 3.75460316D-02
                -7.72244399D-02 8.70850158D-02-4.84610234D-02
                 3.55250394D-02 2.98263046D-03-1.13852432D-03
                 4.45341154D-03-6.25236822D-02-7.63593038D-02
                 1.22161328D-02-1.16640226D-01-6.00615471D-02
                 3.33771906D-01 3.57746642D-02-5.38892008D-02
                -3.66179408D-02 3.50914766D-01 5.87333638D-02
                 3.42842614D-02 1.18736941D-01 2.28789531D-01
                 1.63678402D-02-3.06690559D-02 4.15863865D-02
                -4.65268576D-02-4.74421145D-02 7.17552706D-02
                 6.96737459D-02 9.73706460D-02-5.17446093D-02
                -7.66428570D-02-4.17527995D-03-6.29918150D-02
                 9.03147242D-03 2.11176414D-02-8.53177199D-03
                -1.06675070D-01-5.48815779D-02-6.67253849D-02
 Polarizability= 4.37169100D+01 1.66788381D+00 4.77113171D+01
                -8.42476396D-01-6.80631975D-01 4.49626952D+01
 VibFq2-Diag1:  N=     42 IV=          15 MDV=   134188994 NE2=     3194975
 Full mass-weighted force constant matrix:
 Low frequencies ---  -28.7717   -6.3363   -3.9706   -3.4342    0.0005    0.0007
[...]
 ! D10   D(3,1,12,9)            38.1042         -DE/DX =    0.0                 !
 ! D11   D(3,1,12,13)          162.387          -DE/DX =    0.0                 !
 ! D12   D(3,1,12,14)          -80.3175         -DE/DX =    0.0                 !
 ! D13   D(1,3,6,7)            -95.3726         -DE/DX =    0.0                 !
 ! D14   D(1,3,6,8)            145.3241         -DE/DX =    0.0                 !
 ! D15   D(1,3,6,9)             23.427          -DE/DX =    0.0                 !
 ! D16   D(4,3,6,7)             27.0363         -DE/DX =    0.0                 !
 ! D17   D(4,3,6,8)            -92.2669         -DE/DX =    0.0                 !
 ! D18   D(4,3,6,9)            145.8359         -DE/DX =    0.0                 !
 ! D19   D(5,3,6,7)            147.9583         -DE/DX =    0.0                 !
 ! D20   D(5,3,6,8)             28.6551         -DE/DX =    0.0                 !
 ! D21   D(5,3,6,9)            -93.2421         -DE/DX =    0.0                 !
 ! D22   D(3,6,9,10)          -118.5835         -DE/DX =    0.0                 !
 ! D23   D(3,6,9,11)           121.5301         -DE/DX =    0.0                 !
 ! D24   D(3,6,9,12)            -0.0277         -DE/DX =    0.0                 !
 ! D25   D(7,6,9,10)            -0.0358         -DE/DX =    0.0                 !
 ! D26   D(7,6,9,11)          -119.9222         -DE/DX =    0.0                 !
 ! D27   D(7,6,9,12)           118.52           -DE/DX =    0.0                 !
 ! D28   D(8,6,9,10)           119.852          -DE/DX =    0.0                 !
 ! D29   D(8,6,9,11)            -0.0344         -DE/DX =    0.0                 !
 ! D30   D(8,6,9,12)          -121.5921         -DE/DX =    0.0                 !
 ! D31   D(6,9,12,1)           -23.3796         -DE/DX =    0.0                 !
 ! D32   D(6,9,12,13)         -145.7893         -DE/DX =    0.0                 !
 ! D33   D(6,9,12,14)           93.2911         -DE/DX =    0.0                 !
 ! D34   D(10,9,12,1)           95.4258         -DE/DX =    0.0                 !
 ! D35   D(10,9,12,13)         -26.9839         -DE/DX =    0.0                 !
 ! D36   D(10,9,12,14)        -147.9035         -DE/DX =    0.0                 !
 ! D37   D(11,9,12,1)         -145.2715         -DE/DX =    0.0                 !
 ! D38   D(11,9,12,13)          92.3188         -DE/DX =    0.0                 !
 ! D39   D(11,9,12,14)         -28.6008         -DE/DX =    0.0                 !
 --------------------------------------------------------------------------------
 GradGradGradGradGradGradGradGradGradGradGradGradGradGradGradGradGradGrad


 ----------------------------------------------------------------------

 Electric dipole moment (input orientation):
 (Debye = 10**-18 statcoulomb cm , SI units = C m)
                  (au)            (Debye)         (10**-30 SI)
   Tot        0.572990D+00      0.145639D+01      0.485801D+01
   x          0.531233D+00      0.135026D+01      0.450398D+01
   y         -0.213988D+00     -0.543903D+00     -0.181427D+01
   z         -0.178432D-01     -0.453529D-01     -0.151281D+00

 Dipole polarizability, Alpha (input orientation).
 (esu units = cm**3 , SI units = C**2 m**2 J**-1)
 Alpha(0;0):
               (au)            (10**-24 esu)      (10**-40 SI)
   iso        0.454636D+02      0.673702D+01      0.749594D+01
   aniso      0.493920D+01      0.731914D+00      0.814364D+00
   xx         0.437169D+02      0.647818D+01      0.720794D+01
   yx         0.166788D+01      0.247155D+00      0.274997D+00
   yy         0.477113D+02      0.707009D+01      0.786653D+01
   zx        -0.842476D+00     -0.124842D+00     -0.138906D+00
   zy        -0.680632D+00     -0.100859D+00     -0.112221D+00
   zz         0.449627D+02      0.666278D+01      0.741335D+01

 ----------------------------------------------------------------------

 Dipole orientation:
     7         -1.12959210          1.96016311          1.10254741
     1         -2.52360506          2.99661731          1.94816668
     6          1.30764404          2.85108849          2.09151332
     1          1.41696718          4.91338935          2.00990515
     1          2.79473062          2.09526092          0.86365907
     6          1.57861401          1.76878442          4.79012493
     1          0.94205753          3.15372630          6.18831185
     1          3.54008639          1.30058769          5.24657669
     6         -0.16562318         -0.57870905          4.78981889
     1         -1.67483722         -0.36974104          6.18866615
     1          0.84896808         -2.32179320          5.24500165
     6         -1.28085569         -0.63044966          2.09142840
     1         -3.22439811         -1.32883431          2.01028075
     1         -0.12927687         -1.83690821          0.86316665

 Electric dipole moment (dipole orientation):
 (Debye = 10**-18 statcoulomb cm , SI units = C m)
                  (au)            (Debye)         (10**-30 SI)
   Tot        0.572990D+00      0.145639D+01      0.485801D+01
   x          0.000000D+00      0.000000D+00      0.000000D+00
   y          0.000000D+00      0.000000D+00      0.000000D+00
   z          0.572990D+00      0.145639D+01      0.485801D+01

 Dipole polarizability, Alpha (dipole orientation).
 (esu units = cm**3 , SI units = C**2 m**2 J**-1)
 Alpha(0;0):
               (au)            (10**-24 esu)      (10**-40 SI)
   iso        0.454636D+02      0.673702D+01      0.749594D+01
   aniso      0.493920D+01      0.731914D+00      0.814364D+00
   xx         0.460596D+02      0.682533D+01      0.759421D+01
   yx         0.185773D+01      0.275287D+00      0.306298D+00
   yy         0.471782D+02      0.699109D+01      0.777864D+01
   zx         0.484234D+00      0.717561D-01      0.798395D-01
   zy        -0.359611D+00     -0.532889D-01     -0.592919D-01
   zz         0.431531D+02      0.639462D+01      0.711498D+01

 ----------------------------------------------------------------------

 Test job not archived.
 1\1\GINC-C417-074\Freq\RMP2-FC\6-31G(d)\C4H9N1\TG455515\02-Apr-2021\0\
 \# MP2/6-31G* Geom=(AllCheck,ModRedundant) Freq NoSymm IOp(7/33=1) SCF
 =Tight Guess=Read\\<qmtool> simtype="Geometry optimization" </qmtool>\
 \0,1\N,0.8441808368,0.4564417234,0.9234025667\H,1.371838822,0.49521366
 14,1.7982185673\C,1.6433647223,1.125497977,-0.1125640548\H,1.999860407
 ,2.0965224193,0.2427092987\H,0.9868037417,1.3069907921,-0.9712853134\C
 ,2.7788373943,0.1531428452,-0.5038666436\H,3.688714591,0.3838226843,0.
 0590959286\H,3.0313333752,0.2217824396,-1.5662398336\C,2.2306181995,-1
 .2400684749,-0.1120416693\H,2.866331496,-1.707265853,0.6466442726\H,2.
 1848668795,-1.9277692582,-0.9617925335\C,0.8303906209,-0.9411399762,0.
 4693468539\H,0.5424787058,-1.6090198639,1.2861921937\H,0.0683803881,-1
 .0271512162,-0.3138195732\\Version=ES64L-G16RevA.03\HF=-211.143212\MP2
 =-211.8273515\RMSD=8.242e-10\RMSF=2.510e-05\ZeroPoint=0.1330207\Therma
 l=0.1370745\Dipole=0.5312326,-0.213988,-0.0178432\DipoleDeriv=-0.53649
 6,0.1254245,0.3701779,0.0765168,-0.5462825,-0.1192413,0.1966199,-0.050
 9486,-0.3889405,0.1315631,-0.0875145,-0.2258203,-0.0458678,0.1154604,0
 .0948671,-0.0778754,0.0366697,0.0921909,0.3148406,-0.0860245,-0.062002
 2,0.0065458,0.2735981,-0.0271657,-0.0785662,-0.1154222,0.325032,0.0207
 438,-0.0609169,0.0002688,-0.038906,-0.1332686,-0.0308272,-0.0058654,-0
 .0650854,0.0297213,-0.0544693,0.044333,-0.0736866,0.0212195,0.0323814,
 -0.0041315,-0.0652163,0.0560751,-0.1001432,0.004429,0.0391809,0.047279
 ,0.0834325,-0.0314781,-0.0217621,0.0564523,0.0455414,0.085577,-0.10588
 53,-0.032785,-0.0464072,-0.0395586,-0.000027,-0.0032466,-0.0976224,-0.
 0241694,-0.0077137,0.0125217,-0.0128262,0.046768,-0.0007989,0.0322429,
 0.0070942,0.081361,0.0284914,-0.1317985,-0.0549112,0.0190806,0.0755554
 ,-0.0273828,0.0190618,0.0212696,0.0584379,-0.0428227,0.0942777,-0.0413
 582,0.0481352,-0.0556995,0.0344596,-0.0237549,0.037546,-0.0772244,0.08
 7085,-0.048461,0.035525,0.0029826,-0.0011385,0.0044534,-0.0625237,-0.0
 763593,0.0122161,-0.1166402,-0.0600615,0.3337719,0.0357747,-0.0538892,
 -0.0366179,0.3509148,0.0587334,0.0342843,0.1187369,0.2287895,0.0163678
 ,-0.0306691,0.0415864,-0.0465269,-0.0474421,0.0717553,0.0696737,0.0973
 706,-0.0517446,-0.0766429,-0.0041753,-0.0629918,0.0090315,0.0211176,-0
 .0085318,-0.1066751,-0.0548816,-0.0667254\Polar=43.71691,1.6678838,47.
 7113171,-0.8424764,-0.680632,44.9626952\PG=C01 [X(C4H9N1)]\NImag=1\\0.
 33221119,0.07003640,0.41868401,0.09592568,0.01671352,0.63490130,-0.133
 70726,-0.02556702,-0.19958717,0.13318482,-0.01156459,-0.04930894,0.007
 01958,0.02335974,0.06451761,-0.14985901,-0.01254235,-0.30972366,0.1696
 0553,0.00904404,0.34021999,-0.10847121,-0.06458575,0.05397445,0.004214
 58,0.01351953,-0.01781120,0.49482686,-0.01919808,-0.10153371,0.0268168
 4,-0.00083669,-0.00069454,0.00078982,0.04635924,0.63138230,0.01902470,
 0.04531422,-0.16434764,0.02681742,0.01978187,-0.02535495,0.10805434,0.
 01633109,0.56206867,-0.00710688,-0.01798046,-0.00702879,0.00101960,0.0
 0055955,-0.00044240,-0.08050853,-0.07895783,-0.03159428,0.08705492,-0.
 00443916,-0.01180898,-0.00487076,0.00082433,-0.00013199,-0.00029191,-0
 .08048280,-0.26480603,-0.08148047,0.08825426,0.28749448,0.01065480,0.0
 2683012,0.00847631,-0.00055221,-0.00000658,0.00189302,-0.03612901,-0.0
 8910342,-0.08816720,0.03266443,0.08707045,0.08913956,0.01303765,-0.004
 04686,0.02212986,-0.00028291,-0.00360598,0.00425176,-0.15295231,0.0235
 6236,-0.13530687,-0.00599520,0.00259641,-0.00835784,0.16544716,0.00599
 368,-0.00143318,0.01544697,-0.00069808,-0.00180093,0.00278728,0.022433
 72,-0.06338821,0.02809915,-0.01827094,0.00629930,-0.02454462,-0.026913
 34,0.06230796,-0.00823392,0.00469455,-0.02913125,0.00190090,0.00502319
 ,-0.00227010,-0.12974958,0.02885535,-0.20799626,-0.00629152,0.00207693
 ,-0.00741698,0.13286488,-0.03653212,0.23657242,-0.02191733,-0.00043027
 ,0.02147736,0.00050022,0.00003075,-0.00000140,-0.13483205,0.04817062,0
 .00315669,0.00894685,-0.00683220,-0.00364271,-0.01766690,0.01536375,0.
 00791942,0.57227781,-0.00028593,0.00064446,-0.00463232,-0.00097224,0.0
 0010558,-0.00042951,0.04438077,-0.11618696,-0.01463148,0.02263293,-0.0
 1216394,-0.00493537,0.00357498,-0.00216207,-0.00271802,0.04380965,0.41
 609968,0.03658830,-0.00340168,-0.01678235,0.00108404,-0.00071395,0.000
 51269,0.00539245,-0.01113367,-0.08399359,0.00678481,-0.00539379,-0.000
 92574,-0.01719924,0.01462508,0.00738312,0.01327159,-0.00257215,0.63130
 252,0.00078380,-0.00053030,0.00111104,-0.00044713,-0.00024961,0.000575
 50,-0.01830518,-0.00360818,-0.01550551,0.00160805,-0.00029599,0.000092
 34,-0.00261445,0.00271372,0.00190969,-0.23840913,-0.04866892,-0.118390
 15,0.25494322,-0.00077643,0.00052625,-0.00028286,-0.00020102,0.0004160
 2,-0.00019495,0.02128473,0.00204814,0.01536025,-0.00046270,0.00120340,
 0.00044814,0.00447346,-0.00229487,-0.00159378,-0.04807458,-0.05687653,
 -0.03195775,0.05018111,0.06953209,-0.00074826,-0.00062449,0.00053732,0
 .00000879,-0.00018297,-0.00036815,0.00838039,0.00178666,0.00484715,-0.
 00012035,0.00055577,0.00084561,0.00133416,-0.00047491,0.00077174,-0.11
 815328,-0.03115712,-0.13099325,0.12826085,0.03108521,0.13554624,-0.005
 93315,0.00055653,0.00282160,-0.00031687,0.00006114,0.00002796,-0.00334
 065,-0.00357709,0.02262427,-0.00057565,0.00074365,0.00037672,0.0009725
 3,-0.00066156,-0.00007311,-0.06386854,-0.00464706,0.05600363,0.0077614
 8,0.00149616,-0.02963419,0.06794800,0.00420401,-0.00221807,-0.00169010
 ,0.00011486,-0.00018543,0.00023420,0.00299428,0.00325789,-0.02115027,0
 .00056585,-0.00099109,-0.00035970,-0.00066519,0.00142884,0.00028983,-0
 .00469622,-0.04798251,0.01465478,0.00195974,0.00036467,-0.00731627,0.0
 0445474,0.05362073,0.00258032,-0.00013451,0.00013364,-0.00030761,0.000
 00408,0.00060102,-0.00195853,0.00186426,-0.00427034,0.00072183,-0.0000
 7983,-0.00013566,0.00000344,0.00019421,0.00133730,0.05757340,0.0154854
 9,-0.31552039,0.00490212,0.00084014,-0.01679540,-0.06326412,-0.0164117
 1,0.33653609,-0.00350341,0.01431854,0.01162001,0.00106474,-0.00048350,
 0.00045272,0.01314466,0.01184573,-0.00783631,-0.00273168,0.00070040,0.
 00192301,-0.00114291,0.00033899,0.00032523,-0.08951257,-0.02594774,0.0
 0246463,-0.00559221,-0.02494634,0.00862884,-0.00214534,-0.00516802,-0.
 00108336,0.47298515,0.02084932,-0.02703475,-0.01133545,0.00093690,-0.0
 0001565,0.00038752,0.00777809,-0.03411426,-0.00765194,0.00319499,-0.00
 153237,0.00048086,-0.00050318,0.00054512,0.00045748,-0.04030775,-0.157
 23648,0.02356369,-0.00066069,-0.00931143,0.00416172,0.00084422,-0.0027
 3867,-0.00155236,-0.05550791,0.55276909,0.02027542,-0.02190374,-0.0074
 9376,0.00084895,0.00009093,0.00006354,-0.00252501,-0.00038481,0.000687
 96,0.00154461,-0.00013807,-0.00085252,0.00019326,-0.00048358,-0.000202
 94,0.00676661,0.02426374,-0.08547265,-0.00498381,-0.01433260,0.0037727
 0,0.00906580,0.02876196,-0.00305606,0.07497669,0.04458168,0.59386942,0
 .00144323,0.00043293,0.00075182,0.00024301,0.00065399,0.00016686,-0.00
 192638,-0.00068621,0.00206210,0.00023503,-0.00003281,-0.00014897,0.000
 24343,-0.00020087,-0.00006915,0.00709187,-0.00953802,0.01049788,0.0015
 4119,0.00006912,0.00056018,-0.00011504,-0.00213157,0.00082244,-0.13955
 690,0.06967207,-0.11298835,0.15518995,-0.00014677,0.00026442,-0.000440
 14,0.00035139,-0.00033933,-0.00036880,-0.00226455,-0.00279164,0.001258
 05,0.00073118,-0.00052029,-0.00022004,0.00010502,0.00001611,-0.0000537
 2,0.01454085,-0.01340786,0.01982787,0.00024268,0.00159317,0.00035868,-
 0.00020648,-0.00345477,0.00066660,0.06911826,-0.09785201,0.07781465,-0
 .06956655,0.10630316,-0.00029751,0.00104131,0.00012885,-0.00016822,-0.
 00002707,-0.00030330,0.00095391,0.00011919,-0.00061312,-0.00019509,0.0
 0005652,0.00006243,0.00004315,-0.00008635,-0.00003380,-0.00391161,0.00
 166454,-0.00480833,0.00015358,-0.00055124,0.00184088,0.00032727,0.0016
 9062,0.00041601,-0.11308104,0.07695972,-0.18887587,0.11976424,-0.08635
 538,0.19853117,-0.00556222,0.00458650,0.00243153,-0.00038271,0.0001220
 5,-0.00000795,-0.00171038,-0.00132784,0.00166225,0.00037822,-0.0000133
 0,-0.00024631,0.00007283,-0.00003687,-0.00019789,-0.00240137,-0.007770
 94,-0.00932703,-0.00045404,-0.00260211,0.00058359,0.00113955,0.0003985
 8,0.00000641,-0.04923825,-0.00756484,-0.01358986,-0.00028075,-0.013482
 92,-0.01647052,0.05328504,0.00102644,-0.00241078,0.00025865,-0.0000370
 0,0.00000844,0.00013053,-0.00045019,-0.00242861,-0.00098264,0.00079795
 ,-0.00051655,-0.00016332,0.00024801,-0.00016308,0.00005631,-0.00174233
 ,-0.01429329,-0.02089143,-0.00051099,-0.00322401,0.00056385,0.00027158
 ,0.00179098,-0.00018584,-0.00695582,-0.15521763,-0.13375082,0.00040361
 ,0.01020313,0.01270378,0.00835617,0.16776045,0.00295221,-0.00140589,-0
 .00004295,-0.00004491,0.00050664,0.00047221,0.00080457,0.00184967,-0.0
 0096656,-0.00031061,0.00011618,0.00013412,-0.00018783,0.00004795,0.000
 05950,0.00097837,0.00937058,0.00875053,0.00066552,0.00136260,0.0005207
 5,0.00007005,-0.00011473,0.00148455,-0.01317093,-0.13536281,-0.2229147
 9,-0.00002174,-0.01551288,-0.01859179,0.01173187,0.14445177,0.23706577
 ,-0.06587329,0.02380846,-0.00598230,-0.00593547,-0.02258627,-0.0080610
 4,-0.00856699,-0.02194651,0.00608092,-0.00287925,-0.00075295,0.0029451
 3,0.00085441,0.00080214,-0.00083210,-0.01631715,-0.01752516,0.01079368
 ,-0.00057729,0.00045485,0.00048488,-0.00090040,-0.00089925,-0.00020737
 ,-0.16566733,0.01684144,0.02082859,-0.02063929,0.00099031,0.01063325,0
 .00457659,-0.00175617,-0.00395305,0.53352612,-0.03500712,-0.19224668,-
 0.03675577,0.00688305,-0.00726352,0.00157821,-0.01074472,-0.04526526,0
 .00588045,-0.00016807,-0.00167369,0.00263231,0.00071861,0.00070664,-0.
 00154203,-0.02218202,0.00540883,0.00423780,-0.00062133,-0.00441456,0.0
 0133585,0.00076633,-0.00350700,-0.00073946,0.01312706,-0.07562562,-0.0
 0311020,0.00936827,-0.00143230,-0.00605494,0.01930004,-0.00177176,-0.0
 0518087,0.07482205,0.52599093,-0.01875461,-0.03647702,-0.11621399,0.00
 098006,-0.03852412,-0.00863336,0.00999036,0.02383313,0.00811586,0.0044
 6241,0.00289921,-0.00403244,0.00080127,0.00139949,-0.00003385,0.013964
 71,0.01233392,-0.00937103,0.00116628,-0.00050817,-0.00032872,0.0017346
 2,0.00099595,-0.00070804,0.02337945,0.00025485,-0.09367302,-0.02418978
 ,0.00348390,0.01067313,0.02299636,-0.00243816,-0.00716705,0.04767099,-
 0.08722095,0.62868729,0.00016704,0.00077349,-0.00117243,-0.00018032,-0
 .00031176,0.00042393,-0.00162338,0.00020564,0.00111015,0.00039937,-0.0
 0021155,0.00010668,0.00002966,-0.00017486,0.00042227,-0.00361359,-0.00
 027882,0.00214625,-0.00043824,-0.00070649,0.00026353,-0.00043816,-0.00
 084518,0.00020706,-0.00588791,-0.01760370,0.02002194,0.00166257,-0.000
 39067,-0.00047311,-0.00116076,0.00017698,0.00079834,-0.06905456,-0.042
 54190,0.05076621,0.07309796,-0.00863691,-0.02182245,0.02625795,-0.0006
 4412,0.00167974,0.00077677,0.00007387,-0.00674184,-0.00392589,-0.00127
 638,-0.00093188,0.00159990,0.00019510,0.00012349,0.00007227,0.00195553
 ,-0.00144163,-0.00112651,0.00002834,0.00032997,-0.00004391,-0.00005766
 ,0.00046909,-0.00001865,0.00322757,0.00701746,-0.00594755,-0.00041943,
 0.00071858,-0.00015413,-0.00008257,-0.00032107,-0.00035807,-0.04191609
 ,-0.14818371,0.12123205,0.04666601,0.16623348,-0.00422681,-0.01120131,
 0.01121487,0.00029499,0.00058428,0.00128325,0.00007346,-0.00265288,-0.
 00022163,-0.00035264,-0.00032933,0.00068076,0.00002482,-0.00029479,0.0
 0038067,0.00084411,-0.00138192,-0.00006034,0.00012116,0.00027028,-0.00
 011466,0.00005621,0.00029635,-0.00003493,-0.00018804,0.00564708,-0.005
 27400,-0.00019679,-0.00023826,0.00127788,0.00084389,0.00004099,-0.0002
 2377,0.05211377,0.13010884,-0.21624439,-0.05672686,-0.13591723,0.22436
 070,0.00443186,-0.00137220,0.00152733,0.00102569,0.00049497,0.00067873
 ,0.00005098,-0.00000516,-0.00034988,0.00015515,-0.00005828,0.00031394,
 -0.00000298,-0.00068948,0.00010488,-0.00027812,0.00123651,-0.00011082,
 0.00019991,-0.00018977,0.00015086,-0.00018775,-0.00028663,0.00000397,-
 0.02221604,0.00203104,-0.02043484,-0.00513192,-0.00002175,0.00272170,0
 .00173826,0.00017174,-0.00031188,-0.18254609,-0.01372024,-0.13496832,0
 .00704032,0.00088673,0.00731872,0.19572072,-0.02205487,-0.01030162,-0.
 03250611,-0.00351410,-0.00698704,-0.00190084,-0.00029621,0.00126275,-0
 .00220239,0.00037967,0.00007962,0.00027126,0.00026062,-0.00018513,0.00
 091377,0.00039421,-0.00050727,0.00028172,0.00002042,0.00010768,-0.0000
 4806,-0.00004450,0.00014533,0.00006757,0.00633277,0.00034720,0.0045384
 1,0.00197547,0.00069962,-0.00100658,0.00011805,0.00058379,0.00022986,-
 0.01033684,-0.05072233,-0.00126409,0.01524280,0.00287078,0.01506790,0.
 01152252,0.06260662,-0.00588133,-0.00690272,-0.01165668,-0.00088055,-0
 .00259993,0.00160778,0.00054939,0.00102876,0.00021166,0.00015758,-0.00
 019090,0.00029873,-0.00059482,-0.00018375,0.00058042,-0.00024325,-0.00
 066038,-0.00002121,-0.00007861,0.00005472,-0.00008223,-0.00013672,0.00
 011908,0.00001223,0.01158911,-0.00059204,0.00942198,0.00298926,-0.0002
 2052,0.00029586,-0.00041635,0.00020633,0.00141950,-0.13251536,-0.00516
 924,-0.19107041,-0.01789395,-0.00244701,-0.01702441,0.14335561,0.01755
 759,0.20600680\\0.00004036,-0.00002406,-0.00003299,-0.00001493,0.00000
 438,-0.00000681,-0.00004977,0.00003357,0.00003777,0.00000185,-0.000019
 10,-0.00000600,0.00000740,-0.00000272,0.00000377,0.00003626,-0.0000609
 6,-0.00001029,-0.00002147,-0.00000042,-0.00000666,-0.00000584,0.000012
 53,0.00001555,0.00006348,0.00001034,-0.00003021,-0.00001697,0.00001077
 ,-0.00000957,-0.00000954,0.00000263,0.00001816,-0.00005183,0.00002619,
 0.00003800,0.00001285,0.00000843,-0.00001391,0.00000817,-0.00000160,0.
 00000321\\\@


 A MAN BEGINS CUTTING HIS WISDOM TEETH THE 1ST
 TIME HE BITES OFF MORE THAN HE CAN CHEW.
 Job cpu time:       0 days  0 hours  4 minutes 27.5 seconds.
 Elapsed time:       0 days  0 hours  4 minutes 30.0 seconds.
 File lengths (MBytes):  RWF=    584 Int=      0 D2E=      0 Chk=      2 Scr=      1
 Normal termination of Gaussian 16 at Fri Apr  2 13:30:17 2021.
